 Entering Gaussian System, Link 0=g16
 Initial command:
 /kimariyb/g16/l1.exe "/kimariyb/g16/scratch/Gau-14875.inp" -scrdir="/kimariyb/g16/scratch/"
 Default is to use a total of  10 processors:
                               10 via shared-memory
                                1 via Linda
 Entering Link 1 = /kimariyb/g16/l1.exe PID=     14878.
  
 Copyright (c) 1988-2019, Gaussian, Inc.  All Rights Reserved.
  
 This is part of the Gaussian(R) 16 program.  It is based on
 the Gaussian(R) 09 system (copyright 2009, Gaussian, Inc.),
 the Gaussian(R) 03 system (copyright 2003, Gaussian, Inc.),
 the Gaussian(R) 98 system (copyright 1998, Gaussian, Inc.),
 the Gaussian(R) 94 system (copyright 1995, Gaussian, Inc.),
 the Gaussian 92(TM) system (copyright 1992, Gaussian, Inc.),
 the Gaussian 90(TM) system (copyright 1990, Gaussian, Inc.),
 the Gaussian 88(TM) system (copyright 1988, Gaussian, Inc.),
 the Gaussian 86(TM) system (copyright 1986, Carnegie Mellon
 University), and the Gaussian 82(TM) system (copyright 1983,
 Carnegie Mellon University). Gaussian is a federally registered
 trademark of Gaussian, Inc.
  
 This software contains proprietary and confidential information,
 including trade secrets, belonging to Gaussian, Inc.
  
 This software is provided under written license and may be
 used, copied, transmitted, or stored only in accord with that
 written license.
  
 The following legend is applicable only to US Government
 contracts under FAR:
  
                    RESTRICTED RIGHTS LEGEND
  
 Use, reproduction and disclosure by the US Government is
 subject to restrictions as set forth in subparagraphs (a)
 and (c) of the Commercial Computer Software - Restricted
 Rights clause in FAR 52.227-19.
  
 Gaussian, Inc.
 340 Quinnipiac St., Bldg. 40, Wallingford CT 06492
  
  
 ---------------------------------------------------------------
 Warning -- This program may not be used in any manner that
 competes with the business of Gaussian, Inc. or will provide
 assistance to any competitor of Gaussian, Inc.  The licensee
 of this program is prohibited from giving any competitor of
 Gaussian, Inc. access to this program.  By using this program,
 the user acknowledges that Gaussian, Inc. is engaged in the
 business of creating and licensing software in the field of
 computational chemistry and represents and warrants to the
 licensee that it is not a competitor of Gaussian, Inc. and that
 it will not use this program in any manner prohibited above.
 ---------------------------------------------------------------
  

 Cite this work as:
 Gaussian 16, Revision C.01,
 M. J. Frisch, G. W. Trucks, H. B. Schlegel, G. E. Scuseria, 
 M. A. Robb, J. R. Cheeseman, G. Scalmani, V. Barone, 
 G. A. Petersson, H. Nakatsuji, X. Li, M. Caricato, A. V. Marenich, 
 J. Bloino, B. G. Janesko, R. Gomperts, B. Mennucci, H. P. Hratchian, 
 J. V. Ortiz, A. F. Izmaylov, J. L. Sonnenberg, D. Williams-Young, 
 F. Ding, F. Lipparini, F. Egidi, J. Goings, B. Peng, A. Petrone, 
 T. Henderson, D. Ranasinghe, V. G. Zakrzewski, J. Gao, N. Rega, 
 G. Zheng, W. Liang, M. Hada, M. Ehara, K. Toyota, R. Fukuda, 
 J. Hasegawa, M. Ishida, T. Nakajima, Y. Honda, O. Kitao, H. Nakai, 
 T. Vreven, K. Throssell, J. A. Montgomery, Jr., J. E. Peralta, 
 F. Ogliaro, M. J. Bearpark, J. J. Heyd, E. N. Brothers, K. N. Kudin, 
 V. N. Staroverov, T. A. Keith, R. Kobayashi, J. Normand, 
 K. Raghavachari, A. P. Rendell, J. C. Burant, S. S. Iyengar, 
 J. Tomasi, M. Cossi, J. M. Millam, M. Klene, C. Adamo, R. Cammi, 
 J. W. Ochterski, R. L. Martin, K. Morokuma, O. Farkas, 
 J. B. Foresman, and D. J. Fox, Gaussian, Inc., Wallingford CT, 2019.
 
 ******************************************
 Gaussian 16:  ES64L-G16RevC.01  3-Jul-2019
                28-Jul-2023 
 ******************************************
 -----------------
 # CCSD(T)/cc-PVQZ
 -----------------
 1/38=1,172=1/1;
 2/12=2,17=6,18=5,40=1/2;
 3/5=16,6=2,11=9,25=1,30=1/1,2,3;
 4//1;
 5/5=2,38=5/2;
 8/6=4,9=120000,10=1/1,4;
 9/5=7,14=2/13;
 6/7=2,8=2,9=2,10=2/1;
 99/5=1,9=1/99;
 -------------------
 Title Card Required
 -------------------
 Symbolic Z-matrix:
 Charge =  0 Multiplicity = 1
 C                     0.        0.        0.66235 
 H                     0.        0.92146   1.2324 
 H                     0.       -0.92146   1.2324 
 C                     0.        0.       -0.66235 
 H                     0.       -0.92146  -1.2324 
 H                     0.        0.92146  -1.2324 
 
                          Input orientation:                          
 ---------------------------------------------------------------------
 Center     Atomic      Atomic             Coordinates (Angstroms)
 Number     Number       Type             X           Y           Z
 ---------------------------------------------------------------------
      1          6           0        0.000000    0.000000    0.662348
      2          1           0        0.000000    0.921462    1.232396
      3          1           0        0.000000   -0.921462    1.232396
      4          6           0        0.000000    0.000000   -0.662348
      5          1           0        0.000000   -0.921462   -1.232396
      6          1           0        0.000000    0.921462   -1.232396
 ---------------------------------------------------------------------
                    Distance matrix (angstroms):
                    1          2          3          4          5
     1  C    0.000000
     2  H    1.083534   0.000000
     3  H    1.083534   1.842924   0.000000
     4  C    1.324696   2.106928   2.106928   0.000000
     5  H    2.106928   3.077591   2.464792   1.083534   0.000000
     6  H    2.106928   2.464792   3.077591   1.083534   1.842924
                    6
     6  H    0.000000
 Stoichiometry    C2H4
 Framework group  D2H[C2"(C.C),SG(H4)]
 Deg. of freedom     3
 Full point group                 D2H     NOp   8
 Largest Abelian subgroup         D2H     NOp   8
 Largest concise Abelian subgroup D2      NOp   4
                         Standard orientation:                         
 ---------------------------------------------------------------------
 Center     Atomic      Atomic             Coordinates (Angstroms)
 Number     Number       Type             X           Y           Z
 ---------------------------------------------------------------------
      1          6           0        0.000000    0.000000    0.662348
      2          1           0        0.000000    0.921462    1.232396
      3          1           0       -0.000000   -0.921462    1.232396
      4          6           0        0.000000    0.000000   -0.662348
      5          1           0       -0.000000   -0.921462   -1.232396
      6          1           0        0.000000    0.921462   -1.232396
 ---------------------------------------------------------------------
 Rotational constants (GHZ):         147.6444767          30.3500765          25.1750465
 Standard basis: CC-pVQZ (5D, 7F)
 There are    54 symmetry adapted cartesian basis functions of AG  symmetry.
 There are    19 symmetry adapted cartesian basis functions of B1G symmetry.
 There are    27 symmetry adapted cartesian basis functions of B2G symmetry.
 There are    40 symmetry adapted cartesian basis functions of B3G symmetry.
 There are    19 symmetry adapted cartesian basis functions of AU  symmetry.
 There are    54 symmetry adapted cartesian basis functions of B1U symmetry.
 There are    40 symmetry adapted cartesian basis functions of B2U symmetry.
 There are    27 symmetry adapted cartesian basis functions of B3U symmetry.
 There are    42 symmetry adapted basis functions of AG  symmetry.
 There are    17 symmetry adapted basis functions of B1G symmetry.
 There are    23 symmetry adapted basis functions of B2G symmetry.
 There are    33 symmetry adapted basis functions of B3G symmetry.
 There are    17 symmetry adapted basis functions of AU  symmetry.
 There are    42 symmetry adapted basis functions of B1U symmetry.
 There are    33 symmetry adapted basis functions of B2U symmetry.
 There are    23 symmetry adapted basis functions of B3U symmetry.
   230 basis functions,   326 primitive gaussians,   280 cartesian basis functions
     8 alpha electrons        8 beta electrons
       nuclear repulsion energy        33.4774906605 Hartrees.
 NAtoms=    6 NActive=    6 NUniq=    2 SFac= 4.00D+00 NAtFMM=   60 NAOKFM=F Big=F
 Integral buffers will be    131072 words long.
 Raffenetti 1 integral format.
 Two-electron integral symmetry is turned on.
 One-electron integrals computed using PRISM.
 NBasis=   230 RedAO= T EigKep=  1.00D-04  NBF=    42    17    23    33    17    42    33    23
 NBsUse=   230 1.00D-06 EigRej= -1.00D+00 NBFU=    42    17    23    33    17    42    33    23
 ExpMin= 8.99D-02 ExpMax= 3.40D+04 ExpMxC= 3.27D+02 IAcc=3 IRadAn=         5 AccDes= 0.00D+00
 Harris functional with IExCor=  205 and IRadAn=       5 diagonalized for initial guess.
 HarFok:  IExCor=  205 AccDes= 0.00D+00 IRadAn=         5 IDoV= 1 UseB2=F ITyADJ=14
 ICtDFT=  3500011 ScaDFX=  1.000000  1.000000  1.000000  1.000000
 FoFCou: FMM=F IPFlag=           0 FMFlag=      100000 FMFlg1=           0
         NFxFlg=           0 DoJE=T BraDBF=F KetDBF=T FulRan=T
         wScrn=  0.000000 ICntrl=       500 IOpCl=  0 I1Cent=   200000004 NGrid=           0
         NMat0=    1 NMatS0=      1 NMatT0=    0 NMatD0=    1 NMtDS0=    0 NMtDT0=    0
 Petite list used in FoFCou.
 Initial guess orbital symmetries:
       Occupied  (AG) (B1U) (AG) (B1U) (B2U) (AG) (B3G) (B3U)
       Virtual   (B2G) (AG) (B2U) (B1U) (B3G) (AG) (B3U) (B1U)
                 (B2U) (AG) (B2G) (B1U) (B1G) (B2U) (AG) (B1U)
                 (B3G) (B1U) (AU) (B3U) (B3G) (AG) (B2U) (AG) (B3G)
                 (B3U) (B2G) (B1U) (B1G) (B2U) (B2G) (B2U) (B1U)
                 (AG) (B3G) (B1U) (AG) (B1U) (AU) (AG) (B3U) (B3G)
                 (B2G) (B1U) (B2U) (AG) (B2U) (B3U) (B1G) (B3G)
                 (AG) (B2U) (B1U) (B3U) (AG) (AU) (B3G) (B1G) (B2G)
                 (B3G) (B2U) (AU) (B1U) (B2G) (AG) (B1U) (B3U)
                 (B1G) (B2U) (B1U) (B3U) (B3G) (AU) (AG) (AG) (B3G)
                 (B2G) (B2U) (B1G) (B1U) (AG) (B1U) (B3G) (B2G)
                 (B3U) (B2U) (B1U) (B2U) (B2G) (AG) (B3U) (AU)
                 (B3G) (B1G) (B1U) (B2U) (AG) (AG) (B3G) (AU) (B1U)
                 (B2G) (AG) (B3G) (B1U) (B1U) (B2U) (B3G) (AG)
                 (B3U) (B2U) (B2G) (B1G) (B3U) (AG) (B1G) (B2U)
                 (B1U) (AU) (AG) (B1G) (B2G) (B3G) (B3U) (B3U)
                 (AU) (AG) (B2U) (B1U) (B3G) (B2G) (AG) (B2U) (B3G)
                 (B2U) (AU) (B1U) (B2G) (B1G) (B3U) (B3U) (B3G)
                 (B1U) (AG) (AU) (B2U) (B2G) (AG) (B3G) (AG) (B1U)
                 (B2U) (B1G) (B1U) (B3U) (B3G) (AU) (B1U) (B2G)
                 (B1U) (B3U) (B2U) (B2G) (AG) (B3G) (B1G) (AG)
                 (AU) (B3U) (B2G) (B1G) (B1U) (B1U) (B3G) (B2U)
                 (AG) (B3G) (AU) (B2U) (AG) (B1U) (B3U) (B1G) (B2G)
                 (AG) (B3G) (B1U) (B1G) (B2U) (B2U) (B2G) (B3U)
                 (AU) (AG) (B3G) (B1U) (B2G) (B3G) (AU) (B1U) (AG)
                 (B2U) (B1U) (B3U) (B1G) (B2U) (AG) (B3G) (AU)
                 (B1U) (AG) (B2G) (B3G) (B2U) (B3G) (B1U) (AG)
                 (B1U) (B2U) (B3G) (AG) (B1U)
 The electronic state of the initial guess is 1-AG.
 Keep R1 ints in memory in symmetry-blocked form, NReq=397486393.
 Requested convergence on RMS density matrix=1.00D-08 within 128 cycles.
 Requested convergence on MAX density matrix=1.00D-06.
 Requested convergence on             energy=1.00D-06.
 No special actions if energy rises.
 SCF Done:  E(RHF) =  -78.0693136629     A.U. after    9 cycles
            NFock=  9  Conv=0.26D-08     -V/T= 2.0013
 ExpMin= 8.99D-02 ExpMax= 3.40D+04 ExpMxC= 3.27D+02 IAcc=3 IRadAn=         5 AccDes= 0.00D+00
 HarFok:  IExCor=  205 AccDes= 0.00D+00 IRadAn=         5 IDoV=-2 UseB2=F ITyADJ=14
 ICtDFT= 12500011 ScaDFX=  1.000000  1.000000  1.000000  1.000000
 Range of M.O.s used for correlation:     3   230
 NBasis=   230 NAE=     8 NBE=     8 NFC=     2 NFV=     0
 NROrb=    228 NOA=     6 NOB=     6 NVA=   222 NVB=   222

 **** Warning!!: The largest alpha MO coefficient is  0.23868888D+02

 Semi-Direct transformation.
 ModeAB=           4 MOrb=             6 LenV=    2682902484
 LASXX=      4428296 LTotXX=     4428296 LenRXX=     8924330
 LTotAB=     4496034 MaxLAS=    18048024 LenRXY=           0
 NonZer=    13352626 LenScr=    20791296 LnRSAI=    18048024
 LnScr1=    27832320 LExtra=           0 Total=     75595970
 MaxDsk=          -1 SrtSym=           T ITran=            4
 JobTyp=0 Pass  1:  I=   1 to   6.
 (rs|ai) integrals will be sorted in core.
 Spin components of T(2) and E(2):
     alpha-alpha T2 =       0.1273956891D-01 E2=     -0.3662050757D-01
     alpha-beta  T2 =       0.8964917690D-01 E2=     -0.2826377524D+00
     beta-beta   T2 =       0.1273956891D-01 E2=     -0.3662050757D-01
 ANorm=    0.1055996361D+01
 E2 =    -0.3558787675D+00 EUMP2 =    -0.78425192430486D+02
 Keep R2 and R3 ints in memory in symmetry-blocked form, NReq=397492407.
 CIDS: In Core Option IDoMem=           1.
 Iterations=  50 Convergence= 0.100D-06
 Produce multiple copies of IABC intergrals
 Iteration Nr.   1
 **********************
 DD1Dir will call FoFMem   1 times, MxPair=        42
 NAB=    21 NAA=     0 NBB=     0.
 MP4(R+Q)=  0.97162851D-02
 E3=       -0.18679995D-01        EUMP3=      -0.78443872425D+02
 E4(DQ)=    0.13472017D-02        UMP4(DQ)=   -0.78442525224D+02
 E4(SDQ)=  -0.14524230D-02        UMP4(SDQ)=  -0.78445324848D+02
 DE(Corr)= -0.36464569     E(Corr)=     -78.433959358    
 NORM(A)=   0.10617810D+01
 Iteration Nr.   2
 **********************
 DD1Dir will call FoFMem   1 times, MxPair=        42
 NAB=    21 NAA=     0 NBB=     0.
 DE(Corr)= -0.37386186     E(CORR)=     -78.443175527     Delta=-9.22D-03
 NORM(A)=   0.10671784D+01
 Iteration Nr.   3
 **********************
 DD1Dir will call FoFMem   1 times, MxPair=        42
 NAB=    21 NAA=     0 NBB=     0.
 DE(Corr)= -0.37515857     E(CORR)=     -78.444472235     Delta=-1.30D-03
 NORM(A)=   0.10685411D+01
 Iteration Nr.   4
 **********************
 DD1Dir will call FoFMem   1 times, MxPair=        42
 NAB=    21 NAA=     0 NBB=     0.
 DE(Corr)= -0.37601999     E(CORR)=     -78.445333648     Delta=-8.61D-04
 NORM(A)=   0.10689415D+01
 Iteration Nr.   5
 **********************
 DD1Dir will call FoFMem   1 times, MxPair=        42
 NAB=    21 NAA=     0 NBB=     0.
 DE(Corr)= -0.37610538     E(CORR)=     -78.445419044     Delta=-8.54D-05
 NORM(A)=   0.10689975D+01
 Iteration Nr.   6
 **********************
 DD1Dir will call FoFMem   1 times, MxPair=        42
 NAB=    21 NAA=     0 NBB=     0.
 DE(Corr)= -0.37611276     E(CORR)=     -78.445426426     Delta=-7.38D-06
 NORM(A)=   0.10689955D+01
 Iteration Nr.   7
 **********************
 DD1Dir will call FoFMem   1 times, MxPair=        42
 NAB=    21 NAA=     0 NBB=     0.
 DE(Corr)= -0.37611242     E(CORR)=     -78.445426079     Delta= 3.47D-07
 NORM(A)=   0.10689974D+01
 Iteration Nr.   8
 **********************
 DD1Dir will call FoFMem   1 times, MxPair=        42
 NAB=    21 NAA=     0 NBB=     0.
 DE(Corr)= -0.37611201     E(CORR)=     -78.445425676     Delta= 4.03D-07
 NORM(A)=   0.10689975D+01
 Iteration Nr.   9
 **********************
 DD1Dir will call FoFMem   1 times, MxPair=        42
 NAB=    21 NAA=     0 NBB=     0.
 DE(Corr)= -0.37611233     E(CORR)=     -78.445425988     Delta=-3.12D-07
 NORM(A)=   0.10689977D+01
 Iteration Nr.  10
 **********************
 DD1Dir will call FoFMem   1 times, MxPair=        42
 NAB=    21 NAA=     0 NBB=     0.
 DE(Corr)= -0.37611234     E(CORR)=     -78.445426002     Delta=-1.33D-08
 NORM(A)=   0.10689978D+01
 Wavefunction amplitudes converged. E(Corr)=     -78.445426002    
 Dominant configurations:
 ***********************
 Spin Case        I    J    A    B          Value
   ABAB           8    8   10   10      -0.105033D+00
 Largest amplitude= 1.05D-01
 Time for triples=      186.51 seconds.
 T4(CCSD)= -0.16651613D-01
 T5(CCSD)=  0.44951175D-03
 CCSD(T)= -0.78461628103D+02
 Discarding MO integrals.

 **********************************************************************

            Population analysis using the SCF Density.

 **********************************************************************

 Orbital symmetries:
       Occupied  (AG) (B1U) (AG) (B1U) (B2U) (AG) (B3G) (B3U)
       Virtual   (AG) (B2G) (B1U) (B2U) (B3G) (AG) (B1U) (B3U)
                 (B2U) (AG) (B2G) (B1U) (B2U) (AG) (B1G) (B1U)
                 (B3G) (B1U) (AU) (B3U) (B3G) (AG) (B2U) (B3G)
                 (AG) (B3U) (B2G) (B1G) (B2G) (B2U) (B1U) (B1U)
                 (B2U) (AG) (AG) (B1U) (B3G) (B1U) (AU) (AG) (B3G)
                 (B3U) (B1U) (B2G) (B2U) (B3G) (AG) (B2U) (B1G)
                 (B3U) (AG) (B2U) (B1U) (B3U) (B3G) (AU) (AG) (B2G)
                 (B1G) (B3G) (B2U) (AU) (B1U) (B2G) (B3U) (AG)
                 (B1U) (B1G) (B2U) (B3U) (B1U) (B3G) (AU) (AG)
                 (B2G) (AG) (B3G) (B2U) (B1G) (B1U) (AG) (B1U)
                 (B3G) (B2G) (B3U) (B2U) (B2U) (B1U) (B3U) (B2G)
                 (AG) (AU) (B3G) (B1G) (B1U) (B2U) (AG) (B3G) (AG)
                 (AU) (B1U) (B2G) (B1U) (AG) (B3G) (B1U) (B2U)
                 (B3G) (AG) (B3U) (B2U) (B2G) (B1G) (AG) (B3U)
                 (B1G) (B2U) (B1U) (AU) (B1G) (B3G) (B2G) (AG)
                 (B3U) (AU) (B3U) (B1U) (AG) (B2U) (B3G) (B2U)
                 (B2G) (AU) (B3G) (B2U) (AG) (B1G) (B2G) (B1U)
                 (B3U) (B3U) (B3G) (B1U) (AG) (B2U) (AG) (AU) (B3G)
                 (B2G) (B1U) (AG) (B2U) (B1G) (B1U) (B3U) (B3G)
                 (AU) (B1U) (B2G) (B3U) (B2G) (B2U) (AG) (B1G)
                 (B1U) (B3G) (AG) (AU) (B3U) (B1U) (B1G) (B2G)
                 (B1U) (B3G) (B2U) (AG) (B3G) (AU) (B2U) (AG) (B1U)
                 (B3U) (B2G) (B1G) (B3G) (B1U) (B1G) (B2U) (AG)
                 (B3U) (AU) (B2U) (AG) (B3G) (B2G) (B2G) (B1U)
                 (B3G) (AU) (B1U) (AG) (B2U) (B1U) (B3U) (B1G)
                 (B2U) (AG) (B3G) (AU) (B1U) (AG) (B2G) (B3G) (B2U)
                 (B3G) (B1U) (AG) (B1U) (B2U) (B3G) (AG) (B1U)
 The electronic state is 1-AG.
 Alpha  occ. eigenvalues --  -11.22883 -11.22704  -1.03544  -0.79186  -0.64286
 Alpha  occ. eigenvalues --   -0.58997  -0.50510  -0.37902
 Alpha virt. eigenvalues --    0.13103   0.14309   0.15243   0.16258   0.20195
 Alpha virt. eigenvalues --    0.28193   0.30190   0.33142   0.37053   0.37617
 Alpha virt. eigenvalues --    0.43846   0.46910   0.47956   0.49601   0.51359
 Alpha virt. eigenvalues --    0.52514   0.55822   0.65241   0.66173   0.70491
 Alpha virt. eigenvalues --    0.72874   0.77394   0.79835   0.85101   0.85609
 Alpha virt. eigenvalues --    0.89989   0.92120   0.95067   0.97843   1.01764
 Alpha virt. eigenvalues --    1.03453   1.11278   1.12079   1.14319   1.17025
 Alpha virt. eigenvalues --    1.18713   1.21359   1.22299   1.26344   1.40097
 Alpha virt. eigenvalues --    1.47790   1.52644   1.67889   1.68714   1.71695
 Alpha virt. eigenvalues --    1.73419   1.74846   1.75322   1.85207   1.87334
 Alpha virt. eigenvalues --    1.93001   1.98100   1.99277   2.00590   2.03243
 Alpha virt. eigenvalues --    2.04487   2.04858   2.10715   2.10790   2.16056
 Alpha virt. eigenvalues --    2.22846   2.25361   2.27248   2.30264   2.36499
 Alpha virt. eigenvalues --    2.36568   2.38475   2.39465   2.56023   2.58769
 Alpha virt. eigenvalues --    2.61809   2.63789   2.64263   2.65597   2.66102
 Alpha virt. eigenvalues --    2.68320   2.68591   2.79058   2.80598   2.82563
 Alpha virt. eigenvalues --    2.90068   2.95507   2.99772   3.03394   3.07686
 Alpha virt. eigenvalues --    3.20143   3.23440   3.26060   3.33390   3.33947
 Alpha virt. eigenvalues --    3.38141   3.41731   3.64113   3.66847   3.73460
 Alpha virt. eigenvalues --    3.77753   3.80521   3.80603   3.82432   3.86766
 Alpha virt. eigenvalues --    3.93739   4.03616   4.10915   4.11705   4.12619
 Alpha virt. eigenvalues --    4.51759   4.55626   4.60914   5.16724   5.18869
 Alpha virt. eigenvalues --    5.23002   5.34154   5.34472   5.36667   5.44516
 Alpha virt. eigenvalues --    5.46172   5.71509   5.76027   5.77698   5.84378
 Alpha virt. eigenvalues --    5.85169   5.86244   5.86934   6.01336   6.02287
 Alpha virt. eigenvalues --    6.06861   6.10170   6.10411   6.12591   6.15691
 Alpha virt. eigenvalues --    6.22375   6.23609   6.27422   6.32533   6.32645
 Alpha virt. eigenvalues --    6.33418   6.34374   6.35360   6.43318   6.43907
 Alpha virt. eigenvalues --    6.52841   6.57033   6.60302   6.61926   6.72149
 Alpha virt. eigenvalues --    6.72554   6.75485   6.79489   6.81215   6.89536
 Alpha virt. eigenvalues --    6.93040   7.01752   7.06806   7.15099   7.19035
 Alpha virt. eigenvalues --    7.29984   7.31598   7.35643   7.38794   7.71816
 Alpha virt. eigenvalues --    7.72513   7.73320   7.76643   7.78863   7.79625
 Alpha virt. eigenvalues --    7.81290   7.85886   7.85937   7.89125   7.93165
 Alpha virt. eigenvalues --    7.94799   7.97695   7.99893   8.05422   8.11829
 Alpha virt. eigenvalues --    8.17952   8.36927   8.38538   8.39042   8.49990
 Alpha virt. eigenvalues --    8.54254   8.56384   8.59945   8.60086   8.67763
 Alpha virt. eigenvalues --    8.72815   8.76974   8.80608   8.83997   8.93723
 Alpha virt. eigenvalues --    8.94729   9.00106   9.01051   9.05127   9.06544
 Alpha virt. eigenvalues --    9.31765   9.32563   9.37393   9.39291   9.53035
 Alpha virt. eigenvalues --    9.54359   9.57790   9.85409  10.12331  10.18113
 Alpha virt. eigenvalues --   10.20802  10.24638  10.38314  10.40628  10.49538
 Alpha virt. eigenvalues --   10.59342  10.59467  10.81133  11.15667  11.48642
 Alpha virt. eigenvalues --   11.93316  11.96353  12.09172  12.78689  13.26045
 Alpha virt. eigenvalues --   25.49206  25.52257
          Condensed to atoms (all electrons):
               1          2          3          4          5          6
     1  C    4.787693   0.432487   0.432487   0.657197  -0.035182  -0.035182
     2  H    0.432487   0.516443  -0.032833  -0.035182   0.005255  -0.005919
     3  H    0.432487  -0.032833   0.516443  -0.035182  -0.005919   0.005255
     4  C    0.657197  -0.035182  -0.035182   4.787693   0.432487   0.432487
     5  H   -0.035182   0.005255  -0.005919   0.432487   0.516443  -0.032833
     6  H   -0.035182  -0.005919   0.005255   0.432487  -0.032833   0.516443
 Mulliken charges:
               1
     1  C   -0.239499
     2  H    0.119750
     3  H    0.119750
     4  C   -0.239499
     5  H    0.119750
     6  H    0.119750
 Sum of Mulliken charges =   0.00000
 Mulliken charges with hydrogens summed into heavy atoms:
               1
     1  C    0.000000
     4  C    0.000000
 Electronic spatial extent (au):  <R**2>=             82.7036
 Charge=              0.0000 electrons
 Dipole moment (field-independent basis, Debye):
    X=             -0.0000    Y=             -0.0000    Z=              0.0000  Tot=              0.0000
 Quadrupole moment (field-independent basis, Debye-Ang):
   XX=            -15.9404   YY=            -12.3925   ZZ=            -12.1262
   XY=              0.0000   XZ=             -0.0000   YZ=              0.0000
 Traceless Quadrupole moment (field-independent basis, Debye-Ang):
   XX=             -2.4541   YY=              1.0939   ZZ=              1.3602
   XY=              0.0000   XZ=             -0.0000   YZ=              0.0000
 Octapole moment (field-independent basis, Debye-Ang**2):
  XXX=             -0.0000  YYY=             -0.0000  ZZZ=              0.0000  XYY=             -0.0000
  XXY=             -0.0000  XXZ=             -0.0000  XZZ=             -0.0000  YZZ=             -0.0000
  YYZ=             -0.0000  XYZ=             -0.0000
 Hexadecapole moment (field-independent basis, Debye-Ang**3):
 XXXX=            -19.8925 YYYY=            -26.7497 ZZZZ=            -67.5728 XXXY=             -0.0000
 XXXZ=              0.0000 YYYX=             -0.0000 YYYZ=             -0.0000 ZZZX=              0.0000
 ZZZY=              0.0000 XXYY=             -8.5687 XXZZ=            -15.4890 YYZZ=            -13.0091
 XXYZ=              0.0000 YYXZ=              0.0000 ZZXY=              0.0000
 N-N= 3.347749066048D+01 E-N=-2.482641979110D+02  KE= 7.797082136946D+01
 Symmetry AG   KE= 3.757864364261D+01
 Symmetry B1G  KE=-3.331888829949D-21
 Symmetry B2G  KE= 1.267132872067D-19
 Symmetry B3G  KE= 2.094668791335D+00
 Symmetry AU   KE= 1.850449753160D-20
 Symmetry B1U  KE= 3.452121130563D+01
 Symmetry B2U  KE= 1.858973575600D+00
 Symmetry B3U  KE= 1.917324054292D+00
 Unable to Open any file for archive entry.
 1\1\GINC-LOCALHOST\SP\RCCSD(T)-FC\CC-pVQZ\C2H4\KIMARIYB\28-Jul-2023\0\
 \# CCSD(T)/cc-PVQZ\\Title Card Required\\0,1\C,0,0.,0.,0.662348\H,0,0.
 ,0.921462,1.232396\H,0,0.,-0.921462,1.232396\C,0,0.,0.,-0.662348\H,0,0
 .,-0.921462,-1.232396\H,0,0.,0.921462,-1.232396\\Version=ES64L-G16RevC
 .01\State=1-AG\HF=-78.0693137\MP2=-78.4251924\MP3=-78.4438724\MP4D=-78
 .4522415\MP4DQ=-78.4425252\MP4SDQ=-78.4453248\CCSD=-78.445426\CCSD(T)=
 -78.4616281\RMSD=2.633e-09\PG=D02H [C2"(C1.C1),SG(H4)]\\@
 The archive entry for this job was punched.


 BRING ME INTO THE COMPANY OF THOSE WHO SEEK TRUTH,
 AND DELIVER ME FROM THOSE WHO HAVE FOUND IT.
 Job cpu time:       0 days  0 hours  6 minutes 55.9 seconds.
 Elapsed time:       0 days  0 hours  0 minutes 42.8 seconds.
 File lengths (MBytes):  RWF=    606 Int=      0 D2E=      0 Chk=      5 Scr=      1
 Normal termination of Gaussian 16 at Fri Jul 28 16:44:34 2023.
