 Entering Gaussian System, Link 0=g16
 Initial command:
 /kimariyb/g16/l1.exe "/kimariyb/g16/scratch/Gau-15016.inp" -scrdir="/kimariyb/g16/scratch/"
 Default is to use a total of  10 processors:
                               10 via shared-memory
                                1 via Linda
 Entering Link 1 = /kimariyb/g16/l1.exe PID=     15017.
  
 Copyright (c) 1988-2019, Gaussian, Inc.  All Rights Reserved.
  
 This is part of the Gaussian(R) 16 program.  It is based on
 the Gaussian(R) 09 system (copyright 2009, Gaussian, Inc.),
 the Gaussian(R) 03 system (copyright 2003, Gaussian, Inc.),
 the Gaussian(R) 98 system (copyright 1998, Gaussian, Inc.),
 the Gaussian(R) 94 system (copyright 1995, Gaussian, Inc.),
 the Gaussian 92(TM) system (copyright 1992, Gaussian, Inc.),
 the Gaussian 90(TM) system (copyright 1990, Gaussian, Inc.),
 the Gaussian 88(TM) system (copyright 1988, Gaussian, Inc.),
 the Gaussian 86(TM) system (copyright 1986, Carnegie Mellon
 University), and the Gaussian 82(TM) system (copyright 1983,
 Carnegie Mellon University). Gaussian is a federally registered
 trademark of Gaussian, Inc.
  
 This software contains proprietary and confidential information,
 including trade secrets, belonging to Gaussian, Inc.
  
 This software is provided under written license and may be
 used, copied, transmitted, or stored only in accord with that
 written license.
  
 The following legend is applicable only to US Government
 contracts under FAR:
  
                    RESTRICTED RIGHTS LEGEND
  
 Use, reproduction and disclosure by the US Government is
 subject to restrictions as set forth in subparagraphs (a)
 and (c) of the Commercial Computer Software - Restricted
 Rights clause in FAR 52.227-19.
  
 Gaussian, Inc.
 340 Quinnipiac St., Bldg. 40, Wallingford CT 06492
  
  
 ---------------------------------------------------------------
 Warning -- This program may not be used in any manner that
 competes with the business of Gaussian, Inc. or will provide
 assistance to any competitor of Gaussian, Inc.  The licensee
 of this program is prohibited from giving any competitor of
 Gaussian, Inc. access to this program.  By using this program,
 the user acknowledges that Gaussian, Inc. is engaged in the
 business of creating and licensing software in the field of
 computational chemistry and represents and warrants to the
 licensee that it is not a competitor of Gaussian, Inc. and that
 it will not use this program in any manner prohibited above.
 ---------------------------------------------------------------
  

 Cite this work as:
 Gaussian 16, Revision C.01,
 M. J. Frisch, G. W. Trucks, H. B. Schlegel, G. E. Scuseria, 
 M. A. Robb, J. R. Cheeseman, G. Scalmani, V. Barone, 
 G. A. Petersson, H. Nakatsuji, X. Li, M. Caricato, A. V. Marenich, 
 J. Bloino, B. G. Janesko, R. Gomperts, B. Mennucci, H. P. Hratchian, 
 J. V. Ortiz, A. F. Izmaylov, J. L. Sonnenberg, D. Williams-Young, 
 F. Ding, F. Lipparini, F. Egidi, J. Goings, B. Peng, A. Petrone, 
 T. Henderson, D. Ranasinghe, V. G. Zakrzewski, J. Gao, N. Rega, 
 G. Zheng, W. Liang, M. Hada, M. Ehara, K. Toyota, R. Fukuda, 
 J. Hasegawa, M. Ishida, T. Nakajima, Y. Honda, O. Kitao, H. Nakai, 
 T. Vreven, K. Throssell, J. A. Montgomery, Jr., J. E. Peralta, 
 F. Ogliaro, M. J. Bearpark, J. J. Heyd, E. N. Brothers, K. N. Kudin, 
 V. N. Staroverov, T. A. Keith, R. Kobayashi, J. Normand, 
 K. Raghavachari, A. P. Rendell, J. C. Burant, S. S. Iyengar, 
 J. Tomasi, M. Cossi, J. M. Millam, M. Klene, C. Adamo, R. Cammi, 
 J. W. Ochterski, R. L. Martin, K. Morokuma, O. Farkas, 
 J. B. Foresman, and D. J. Fox, Gaussian, Inc., Wallingford CT, 2019.
 
 ******************************************
 Gaussian 16:  ES64L-G16RevC.01  3-Jul-2019
                28-Jul-2023 
 ******************************************
 -----------------
 # CCSD(T)/cc-PVQZ
 -----------------
 1/38=1,172=1/1;
 2/12=2,17=6,18=5,40=1/2;
 3/5=16,6=2,11=9,25=1,30=1/1,2,3;
 4//1;
 5/5=2,38=5/2;
 8/6=4,9=120000,10=1/1,4;
 9/5=7,14=2/13;
 6/7=2,8=2,9=2,10=2/1;
 99/5=1,9=1/99;
 -------------------
 Title Card Required
 -------------------
 Symbolic Z-matrix:
 Charge =  0 Multiplicity = 3
 C                     0.        0.        0. 
 
                          Input orientation:                          
 ---------------------------------------------------------------------
 Center     Atomic      Atomic             Coordinates (Angstroms)
 Number     Number       Type             X           Y           Z
 ---------------------------------------------------------------------
      1          6           0        0.000000    0.000000    0.000000
 ---------------------------------------------------------------------
 Stoichiometry    C(3)
 Framework group  OH[O(C)]
 Deg. of freedom     0
 Full point group                 OH      NOp  48
 Largest Abelian subgroup         D2H     NOp   8
 Largest concise Abelian subgroup C1      NOp   1
                         Standard orientation:                         
 ---------------------------------------------------------------------
 Center     Atomic      Atomic             Coordinates (Angstroms)
 Number     Number       Type             X           Y           Z
 ---------------------------------------------------------------------
      1          6           0        0.000000    0.000000    0.000000
 ---------------------------------------------------------------------
 Standard basis: CC-pVQZ (5D, 7F)
 There are    20 symmetry adapted cartesian basis functions of AG  symmetry.
 There are     6 symmetry adapted cartesian basis functions of B1G symmetry.
 There are     6 symmetry adapted cartesian basis functions of B2G symmetry.
 There are     6 symmetry adapted cartesian basis functions of B3G symmetry.
 There are     2 symmetry adapted cartesian basis functions of AU  symmetry.
 There are    10 symmetry adapted cartesian basis functions of B1U symmetry.
 There are    10 symmetry adapted cartesian basis functions of B2U symmetry.
 There are    10 symmetry adapted cartesian basis functions of B3U symmetry.
 There are    14 symmetry adapted basis functions of AG  symmetry.
 There are     5 symmetry adapted basis functions of B1G symmetry.
 There are     5 symmetry adapted basis functions of B2G symmetry.
 There are     5 symmetry adapted basis functions of B3G symmetry.
 There are     2 symmetry adapted basis functions of AU  symmetry.
 There are     8 symmetry adapted basis functions of B1U symmetry.
 There are     8 symmetry adapted basis functions of B2U symmetry.
 There are     8 symmetry adapted basis functions of B3U symmetry.
    55 basis functions,    89 primitive gaussians,    70 cartesian basis functions
     4 alpha electrons        2 beta electrons
       nuclear repulsion energy         0.0000000000 Hartrees.
 NAtoms=    1 NActive=    1 NUniq=    1 SFac= 1.00D+00 NAtFMM=   60 NAOKFM=F Big=F
 Integral buffers will be    131072 words long.
 Raffenetti 2 integral format.
 Two-electron integral symmetry is turned on.
 One-electron integrals computed using PRISM.
 NBasis=    55 RedAO= T EigKep=  2.51D-02  NBF=    14     5     5     5     2     8     8     8
 NBsUse=    55 1.00D-06 EigRej= -1.00D+00 NBFU=    14     5     5     5     2     8     8     8
 ExpMin= 1.01D-01 ExpMax= 3.40D+04 ExpMxC= 3.27D+02 IAcc=3 IRadAn=         5 AccDes= 0.00D+00
 Harris functional with IExCor=  205 and IRadAn=       5 diagonalized for initial guess.
 HarFok:  IExCor=  205 AccDes= 0.00D+00 IRadAn=         5 IDoV= 1 UseB2=F ITyADJ=14
 ICtDFT=  3500011 ScaDFX=  1.000000  1.000000  1.000000  1.000000
 FoFCou: FMM=F IPFlag=           0 FMFlag=      100000 FMFlg1=           0
         NFxFlg=           0 DoJE=T BraDBF=F KetDBF=T FulRan=T
         wScrn=  0.000000 ICntrl=       500 IOpCl=  0 I1Cent=   200000004 NGrid=           0
         NMat0=    1 NMatS0=      1 NMatT0=    0 NMatD0=    1 NMtDS0=    0 NMtDT0=    0
 Petite list used in FoFCou.
 Initial guess orbital symmetries:
 Alpha Orbitals:
       Occupied  (A1G) (A1G) (T1U) (T1U)
       Virtual   (T1U) (A1G) (T1U) (T1U) (T1U) (T2G) (T2G) (T2G)
                 (EG) (EG) (T1U) (T1U) (T1U) (A1G) (T2U) (T2U)
                 (T2U) (A2U) (T1U) (T1U) (T1U) (T2G) (T2G) (T2G)
                 (EG) (EG) (T1G) (T1G) (T1G) (T2G) (T2G) (T2G)
                 (EG) (EG) (A1G) (T1U) (T1U) (T1U) (T2G) (T2G)
                 (T2G) (EG) (EG) (T2U) (T2U) (T2U) (A2U) (T1U)
                 (T1U) (T1U) (A1G)
 Beta  Orbitals:
       Occupied  (A1G) (A1G)
       Virtual   (T1U) (T1U) (T1U) (A1G) (T1U) (T1U) (T1U) (T2G)
                 (T2G) (T2G) (EG) (EG) (T1U) (T1U) (T1U) (A1G)
                 (T2U) (T2U) (T2U) (A2U) (T1U) (T1U) (T1U) (T2G)
                 (T2G) (T2G) (EG) (EG) (T1G) (T1G) (T1G) (T2G)
                 (T2G) (T2G) (EG) (EG) (A1G) (T1U) (T1U) (T1U)
                 (T2G) (T2G) (T2G) (EG) (EG) (T2U) (T2U) (T2U)
                 (A2U) (T1U) (T1U) (T1U) (A1G)
 Initial guess <Sx>= 0.0000 <Sy>= 0.0000 <Sz>= 1.0000 <S**2>= 2.0000 S= 1.0000
 Keep R1 and R2 ints in memory in symmetry-blocked form, NReq=10236924.
 Requested convergence on RMS density matrix=1.00D-08 within 128 cycles.
 Requested convergence on MAX density matrix=1.00D-06.
 Requested convergence on             energy=1.00D-06.
 No special actions if energy rises.
 Density matrix breaks symmetry, PCut= 1.00D-07
 Density has only Abelian symmetry.
 Density matrix breaks symmetry, PCut= 1.00D-07
 Density has only Abelian symmetry.
 Density matrix breaks symmetry, PCut= 1.00D-07
 Density has only Abelian symmetry.
 Density matrix breaks symmetry, PCut= 1.00D-07
 Density has only Abelian symmetry.
 Density matrix breaks symmetry, PCut= 1.00D-07
 Density has only Abelian symmetry.
 Density matrix breaks symmetry, PCut= 1.00D-07
 Density has only Abelian symmetry.
 Density matrix breaks symmetry, PCut= 1.00D-07
 Density has only Abelian symmetry.
 Density matrix breaks symmetry, PCut= 1.00D-07
 Density has only Abelian symmetry.
 Density matrix breaks symmetry, PCut= 1.00D-07
 Density has only Abelian symmetry.
 Density matrix breaks symmetry, PCut= 1.00D-07
 Density has only Abelian symmetry.
 SCF Done:  E(UHF) =  -37.6933076337     A.U. after    9 cycles
            NFock=  9  Conv=0.13D-08     -V/T= 2.0000
 <Sx>= 0.0000 <Sy>= 0.0000 <Sz>= 1.0000 <S**2>= 2.0101 S= 1.0034
 <L.S>=  0.00000000000    
 Annihilation of the first spin contaminant:
 S**2 before annihilation     2.0101,   after     2.0000
 ExpMin= 1.01D-01 ExpMax= 3.40D+04 ExpMxC= 3.27D+02 IAcc=3 IRadAn=         5 AccDes= 0.00D+00
 HarFok:  IExCor=  205 AccDes= 0.00D+00 IRadAn=         5 IDoV=-2 UseB2=F ITyADJ=14
 ICtDFT= 12500011 ScaDFX=  1.000000  1.000000  1.000000  1.000000
 Range of M.O.s used for correlation:     2    55
 NBasis=    55 NAE=     4 NBE=     2 NFC=     1 NFV=     0
 NROrb=     54 NOA=     3 NOB=     1 NVA=    51 NVB=    53
 Semi-Direct transformation.
 ModeAB=           2 MOrb=             3 LenV=    2684006577
 LASXX=        28395 LTotXX=       28395 LenRXX=       28395
 LTotAB=       30607 MaxLAS=      402570 LenRXY=      402570
 NonZer=      443394 LenScr=     1330176 LnRSAI=           0
 LnScr1=           0 LExtra=           0 Total=      1761141
 MaxDsk=          -1 SrtSym=           F ITran=            4
 JobTyp=1 Pass  1:  I=   1 to   3.
 (rs|ai) integrals will be sorted in core.
 ModeAB=           2 MOrb=             1 LenV=    2684006577
 LASXX=         9814 LTotXX=        9814 LenRXX=      134190
 LTotAB=        9514 MaxLAS=      134190 LenRXY=        9514
 NonZer=      147798 LenScr=      785920 LnRSAI=           0
 LnScr1=           0 LExtra=           0 Total=       929624
 MaxDsk=          -1 SrtSym=           F ITran=            4
 JobTyp=2 Pass  1:  I=   1 to   1.
 (rs|ai) integrals will be sorted in core.
 Spin components of T(2) and E(2):
     alpha-alpha T2 =       0.4280663063D-02 E2=     -0.1347515954D-01
     alpha-beta  T2 =       0.2173715114D-01 E2=     -0.5857995865D-01
     beta-beta   T2 =       0.0000000000D+00 E2=      0.0000000000D+00
 ANorm=    0.1012925374D+01
 E2 =    -0.7205511819D-01 EUMP2 =    -0.37765362751860D+02
 (S**2,0)=  0.20101D+01           (S**2,1)=  0.20019D+01
 E(PUHF)=      -0.37695576159D+02        E(PMP2)=      -0.37766715197D+02
 Keep R2 and R3 ints in memory in symmetry-blocked form, NReq=10240496.
 CIDS: In Core Option IDoMem=           1.
 Iterations=  50 Convergence= 0.100D-06
 Produce multiple copies of IABC intergrals
 Iteration Nr.   1
 **********************
 DD1Dir will call FoFMem   1 times, MxPair=        10
 NAB=     3 NAA=     3 NBB=     0.
 E(PMP3)=      -0.37779853049D+02
 MP4(R+Q)=  0.16509833D-02
 E3=       -0.13799211D-01        EUMP3=      -0.37779161963D+02
 E4(DQ)=   -0.30071615D-02        UMP4(DQ)=   -0.37782169125D+02
 E4(SDQ)=  -0.32720420D-02        UMP4(SDQ)=  -0.37782434005D+02
 DE(Corr)= -0.84200109E-01 E(Corr)=     -37.777507743    
 NORM(A)=   0.10213509D+01
 Iteration Nr.   2
 **********************
 DD1Dir will call FoFMem   1 times, MxPair=        10
 NAB=     3 NAA=     3 NBB=     0.
 DE(Corr)= -0.88709529E-01 E(CORR)=     -37.782017162     Delta=-4.51D-03
 NORM(A)=   0.10252036D+01
 Iteration Nr.   3
 **********************
 DD1Dir will call FoFMem   1 times, MxPair=        10
 NAB=     3 NAA=     3 NBB=     0.
 DE(Corr)= -0.90498512E-01 E(CORR)=     -37.783806145     Delta=-1.79D-03
 NORM(A)=   0.10260837D+01
 Iteration Nr.   4
 **********************
 DD1Dir will call FoFMem   1 times, MxPair=        10
 NAB=     3 NAA=     3 NBB=     0.
 DE(Corr)= -0.90852765E-01 E(CORR)=     -37.784160398     Delta=-3.54D-04
 NORM(A)=   0.10261562D+01
 Iteration Nr.   5
 **********************
 DD1Dir will call FoFMem   1 times, MxPair=        10
 NAB=     3 NAA=     3 NBB=     0.
 DE(Corr)= -0.90873255E-01 E(CORR)=     -37.784180889     Delta=-2.05D-05
 NORM(A)=   0.10261549D+01
 Iteration Nr.   6
 **********************
 DD1Dir will call FoFMem   1 times, MxPair=        10
 NAB=     3 NAA=     3 NBB=     0.
 DE(Corr)= -0.90872560E-01 E(CORR)=     -37.784180194     Delta= 6.95D-07
 NORM(A)=   0.10261562D+01
 Iteration Nr.   7
 **********************
 DD1Dir will call FoFMem   1 times, MxPair=        10
 NAB=     3 NAA=     3 NBB=     0.
 DE(Corr)= -0.90873089E-01 E(CORR)=     -37.784180723     Delta=-5.29D-07
 NORM(A)=   0.10261559D+01
 Iteration Nr.   8
 **********************
 DD1Dir will call FoFMem   1 times, MxPair=        10
 NAB=     3 NAA=     3 NBB=     0.
 DE(Corr)= -0.90872996E-01 E(CORR)=     -37.784180630     Delta= 9.27D-08
 NORM(A)=   0.10261559D+01
 Wavefunction amplitudes converged. E(Corr)=     -37.784180630    
 Dominant configurations:
 ***********************
 Spin Case        I    J    A    B          Value
   ABAB           2    2    5    3      -0.103426D+00
 Largest amplitude= 1.03D-01
 Time for triples=        2.22 seconds.
 T4(CCSD)= -0.23838889D-02
 T5(CCSD)=  0.24786626D-04
 CCSD(T)= -0.37786539732D+02

 S**2, projected HF & approx projected MPn energies after annihilation of
 unwanted spin states (see manual for definitions):

 spins       (S**2,0) (S**2,1)    PUHF        PMP2        PMP3        PMP4
 annihilated
 s+1         2.00000  2.00000  -37.695576  -37.766715  -37.779853

 Discarding MO integrals.
 SCF density gives NOpUse=  8 NOpAll= 48.

 **********************************************************************

            Population analysis using the SCF Density.

 **********************************************************************

 Orbital symmetries:
 Alpha Orbitals:
       Occupied  (A1G) (?A) (?B) (?B)
       Virtual   (?B) (?A) (?B) (?B) (?B) (?C) (?A) (?C) (?C) (?A)
                 (?B) (?B) (?B) (?B) (?B) (?B) (A2U) (?B) (?B)
                 (?B) (?A) (?A) (?C) (?C) (?C) (?A) (T2G) (?D)
                 (?D) (?D) (T2G) (?D) (?D) (?D) (T2G) (?E) (?E)
                 (?E) (?E) (?E) (?E) (A2U) (?E) (?E) (?E) (EG)
                 (T2G) (T2G) (EG) (T2G) (A1G)
 Beta  Orbitals:
       Occupied  (A1G) (?A)
       Virtual   (?B) (?B) (?B) (?A) (?B) (?B) (?B) (?A) (T2G)
                 (T2G) (T2G) (?A) (?B) (?B) (?B) (?B) (?B) (?B)
                 (?B) (A2U) (?B) (?B) (?A) (?A) (?C) (?C) (?A)
                 (?C) (?A) (?C) (?C) (?C) (?A) (?C) (?C) (?A) (?C)
                 (?D) (?D) (?D) (?D) (?D) (?D) (?D) (A2U) (?A)
                 (T2G) (T2G) (?D) (?D) (?A) (T2G) (A1G)
 Unable to determine electronic state:  an orbital has unidentified symmetry.
 Alpha  occ. eigenvalues --  -11.34538  -0.82898  -0.43874  -0.43874
 Alpha virt. eigenvalues --    0.03032   0.31330   0.31965   0.31965   0.37521
 Alpha virt. eigenvalues --    0.60638   0.60638   0.61705   0.61705   0.62174
 Alpha virt. eigenvalues --    1.48446   1.48446   1.52349   1.88523   1.88695
 Alpha virt. eigenvalues --    1.88695   1.89221   1.89221   1.90101   1.90101
 Alpha virt. eigenvalues --    1.91536   2.05501   2.05501   2.06690   2.06690
 Alpha virt. eigenvalues --    2.07223   5.07574   5.07821   5.07821   5.08561
 Alpha virt. eigenvalues --    5.08561   5.09797   5.09797   5.11535   5.11535
 Alpha virt. eigenvalues --    5.72104   5.72104   5.72500   6.20859   6.21187
 Alpha virt. eigenvalues --    6.21187   6.22175   6.22175   6.23843   6.23843
 Alpha virt. eigenvalues --    6.25752   6.26027   6.26027   6.26886   6.26886
 Alpha virt. eigenvalues --   20.16645
  Beta  occ. eigenvalues --  -11.30009  -0.58337
  Beta virt. eigenvalues --    0.06091   0.11003   0.11003   0.35374   0.39838
  Beta virt. eigenvalues --    0.44122   0.44122   0.64902   0.65676   0.65676
  Beta virt. eigenvalues --    0.68282   0.68282   1.54850   1.60304   1.60304
  Beta virt. eigenvalues --    1.91271   1.91813   1.91813   1.93453   1.93453
  Beta virt. eigenvalues --    1.96344   1.96344   1.98605   2.12592   2.14047
  Beta virt. eigenvalues --    2.14047   2.18804   2.18804   5.10272   5.10707
  Beta virt. eigenvalues --    5.10707   5.12019   5.12019   5.14228   5.14228
  Beta virt. eigenvalues --    5.17370   5.17370   5.74496   5.79898   5.79898
  Beta virt. eigenvalues --    6.24809   6.25607   6.25607   6.28017   6.28017
  Beta virt. eigenvalues --    6.30081   6.31680   6.31680   6.32190   6.32190
  Beta virt. eigenvalues --    6.36645   6.36645  20.19892
          Condensed to atoms (all electrons):
               1
     1  C    6.000000
          Atomic-Atomic Spin Densities.
               1
     1  C    2.000000
 Mulliken charges and spin densities:
               1          2
     1  C    0.000000   2.000000
 Sum of Mulliken charges =   0.00000   2.00000
 Mulliken charges and spin densities with hydrogens summed into heavy atoms:
               1          2
     1  C    0.000000   2.000000
 Electronic spatial extent (au):  <R**2>=             13.7274
 Charge=              0.0000 electrons
 Dipole moment (field-independent basis, Debye):
    X=              0.0000    Y=              0.0000    Z=              0.0000  Tot=              0.0000
 Quadrupole moment (field-independent basis, Debye-Ang):
   XX=             -6.8172   YY=             -6.8172   ZZ=             -4.8296
   XY=              0.0000   XZ=              0.0000   YZ=             -0.0000
 Traceless Quadrupole moment (field-independent basis, Debye-Ang):
   XX=             -0.6625   YY=             -0.6625   ZZ=              1.3251
   XY=              0.0000   XZ=              0.0000   YZ=             -0.0000
 Octapole moment (field-independent basis, Debye-Ang**2):
  XXX=              0.0000  YYY=              0.0000  ZZZ=              0.0000  XYY=              0.0000
  XXY=              0.0000  XXZ=              0.0000  XZZ=              0.0000  YZZ=              0.0000
  YYZ=              0.0000  XYZ=              0.0000
 Hexadecapole moment (field-independent basis, Debye-Ang**3):
 XXXX=             -8.7116 YYYY=             -8.7116 ZZZZ=             -4.7843 XXXY=              0.0000
 XXXZ=              0.0000 YYYX=              0.0000 YYYZ=             -0.0000 ZZZX=              0.0000
 ZZZY=             -0.0000 XXYY=             -2.9039 XXZZ=             -2.2459 YYZZ=             -2.2459
 XXYZ=             -0.0000 YYXZ=              0.0000 ZZXY=              0.0000
 N-N= 0.000000000000D+00 E-N=-8.814516296186D+01  KE= 3.769386261848D+01
 Symmetry AG   KE= 3.516122879330D+01
 Symmetry B1G  KE= 5.392304187238D-54
 Symmetry B2G  KE= 2.621875903260D-35
 Symmetry B3G  KE= 2.621875903260D-35
 Symmetry AU   KE= 6.635850264031D-38
 Symmetry B1U  KE= 4.748127019527D-33
 Symmetry B2U  KE= 1.266316912591D+00
 Symmetry B3U  KE= 1.266316912591D+00
 Symmetry AG   SP= 5.622943517053D-15
 Symmetry B1G  SP=-2.582795581134D-53
 Symmetry B2G  SP= 1.415372511921D-36
 Symmetry B3G  SP= 1.415372511921D-36
 Symmetry AU   SP= 2.713191955070D-38
 Symmetry B1U  SP= 3.749480852413D-33
 Symmetry B2U  SP= 1.000000000000D+00
 Symmetry B3U  SP= 1.000000000000D+00
 Unable to Open any file for archive entry.
 1\1\GINC-LOCALHOST\SP\UCCSD(T)-FC\CC-pVQZ\C1(3)\KIMARIYB\28-Jul-2023\0
 \\# CCSD(T)/cc-PVQZ\\Title Card Required\\0,3\C,0,0.,0.,0.\\Version=ES
 64L-G16RevC.01\HF=-37.6933076\MP2=-37.7653628\MP3=-37.779162\MP4D=-37.
 7838201\MP4DQ=-37.7821691\PUHF=-37.6955762\PMP2-0=-37.7667152\PMP3-0=-
 37.779853\MP4SDQ=-37.782434\CCSD=-37.7841806\CCSD(T)=-37.7865397\S2=2.
 010129\S2-1=2.001948\S2A=2.\RMSD=1.300e-09\PG=OH [O(C1)]\\@
 The archive entry for this job was punched.


 K N O W I N G  IS A BARRIER WHICH PREVENTS LEARNING

                     -- TEACHING OF THE BENE GESSERIT
 Job cpu time:       0 days  0 hours  0 minutes 22.3 seconds.
 Elapsed time:       0 days  0 hours  0 minutes  2.4 seconds.
 File lengths (MBytes):  RWF=     21 Int=      0 D2E=      0 Chk=      1 Scr=      1
 Normal termination of Gaussian 16 at Fri Jul 28 16:44:37 2023.
