 Entering Gaussian System, Link 0=g16
 Initial command:
 /kimariyb/g16/l1.exe "/kimariyb/g16/scratch/Gau-15139.inp" -scrdir="/kimariyb/g16/scratch/"
 Default is to use a total of  10 processors:
                               10 via shared-memory
                                1 via Linda
 Entering Link 1 = /kimariyb/g16/l1.exe PID=     15140.
  
 Copyright (c) 1988-2019, Gaussian, Inc.  All Rights Reserved.
  
 This is part of the Gaussian(R) 16 program.  It is based on
 the Gaussian(R) 09 system (copyright 2009, Gaussian, Inc.),
 the Gaussian(R) 03 system (copyright 2003, Gaussian, Inc.),
 the Gaussian(R) 98 system (copyright 1998, Gaussian, Inc.),
 the Gaussian(R) 94 system (copyright 1995, Gaussian, Inc.),
 the Gaussian 92(TM) system (copyright 1992, Gaussian, Inc.),
 the Gaussian 90(TM) system (copyright 1990, Gaussian, Inc.),
 the Gaussian 88(TM) system (copyright 1988, Gaussian, Inc.),
 the Gaussian 86(TM) system (copyright 1986, Carnegie Mellon
 University), and the Gaussian 82(TM) system (copyright 1983,
 Carnegie Mellon University). Gaussian is a federally registered
 trademark of Gaussian, Inc.
  
 This software contains proprietary and confidential information,
 including trade secrets, belonging to Gaussian, Inc.
  
 This software is provided under written license and may be
 used, copied, transmitted, or stored only in accord with that
 written license.
  
 The following legend is applicable only to US Government
 contracts under FAR:
  
                    RESTRICTED RIGHTS LEGEND
  
 Use, reproduction and disclosure by the US Government is
 subject to restrictions as set forth in subparagraphs (a)
 and (c) of the Commercial Computer Software - Restricted
 Rights clause in FAR 52.227-19.
  
 Gaussian, Inc.
 340 Quinnipiac St., Bldg. 40, Wallingford CT 06492
  
  
 ---------------------------------------------------------------
 Warning -- This program may not be used in any manner that
 competes with the business of Gaussian, Inc. or will provide
 assistance to any competitor of Gaussian, Inc.  The licensee
 of this program is prohibited from giving any competitor of
 Gaussian, Inc. access to this program.  By using this program,
 the user acknowledges that Gaussian, Inc. is engaged in the
 business of creating and licensing software in the field of
 computational chemistry and represents and warrants to the
 licensee that it is not a competitor of Gaussian, Inc. and that
 it will not use this program in any manner prohibited above.
 ---------------------------------------------------------------
  

 Cite this work as:
 Gaussian 16, Revision C.01,
 M. J. Frisch, G. W. Trucks, H. B. Schlegel, G. E. Scuseria, 
 M. A. Robb, J. R. Cheeseman, G. Scalmani, V. Barone, 
 G. A. Petersson, H. Nakatsuji, X. Li, M. Caricato, A. V. Marenich, 
 J. Bloino, B. G. Janesko, R. Gomperts, B. Mennucci, H. P. Hratchian, 
 J. V. Ortiz, A. F. Izmaylov, J. L. Sonnenberg, D. Williams-Young, 
 F. Ding, F. Lipparini, F. Egidi, J. Goings, B. Peng, A. Petrone, 
 T. Henderson, D. Ranasinghe, V. G. Zakrzewski, J. Gao, N. Rega, 
 G. Zheng, W. Liang, M. Hada, M. Ehara, K. Toyota, R. Fukuda, 
 J. Hasegawa, M. Ishida, T. Nakajima, Y. Honda, O. Kitao, H. Nakai, 
 T. Vreven, K. Throssell, J. A. Montgomery, Jr., J. E. Peralta, 
 F. Ogliaro, M. J. Bearpark, J. J. Heyd, E. N. Brothers, K. N. Kudin, 
 V. N. Staroverov, T. A. Keith, R. Kobayashi, J. Normand, 
 K. Raghavachari, A. P. Rendell, J. C. Burant, S. S. Iyengar, 
 J. Tomasi, M. Cossi, J. M. Millam, M. Klene, C. Adamo, R. Cammi, 
 J. W. Ochterski, R. L. Martin, K. Morokuma, O. Farkas, 
 J. B. Foresman, and D. J. Fox, Gaussian, Inc., Wallingford CT, 2019.
 
 ******************************************
 Gaussian 16:  ES64L-G16RevC.01  3-Jul-2019
                28-Jul-2023 
 ******************************************
 -----------------
 # CCSD(T)/cc-PVQZ
 -----------------
 1/38=1,172=1/1;
 2/12=2,17=6,18=5,40=1/2;
 3/5=16,6=2,11=9,25=1,30=1/1,2,3;
 4//1;
 5/5=2,38=5/2;
 8/6=4,9=120000,10=1/1,4;
 9/5=7,14=2/13;
 6/7=2,8=2,9=2,10=2/1;
 99/5=1,9=1/99;
 -------------------
 Title Card Required
 -------------------
 Symbolic Z-matrix:
 Charge =  0 Multiplicity = 1
 C                     0.        0.        0. 
 H                     0.62874   0.62874   0.62874 
 H                    -0.62874  -0.62874   0.62874 
 H                    -0.62874   0.62874  -0.62874 
 H                     0.62874  -0.62874  -0.62874 
 
                          Input orientation:                          
 ---------------------------------------------------------------------
 Center     Atomic      Atomic             Coordinates (Angstroms)
 Number     Number       Type             X           Y           Z
 ---------------------------------------------------------------------
      1          6           0        0.000000    0.000000    0.000000
      2          1           0        0.628740    0.628740    0.628740
      3          1           0       -0.628740   -0.628740    0.628740
      4          1           0       -0.628740    0.628740   -0.628740
      5          1           0        0.628740   -0.628740   -0.628740
 ---------------------------------------------------------------------
                    Distance matrix (angstroms):
                    1          2          3          4          5
     1  C    0.000000
     2  H    1.089010   0.000000
     3  H    1.089010   1.778345   0.000000
     4  H    1.089010   1.778345   1.778345   0.000000
     5  H    1.089010   1.778345   1.778345   1.778345   0.000000
 Stoichiometry    CH4
 Framework group  TD[O(C),4C3(H)]
 Deg. of freedom     1
 Full point group                 TD      NOp  24
 Largest Abelian subgroup         D2      NOp   4
 Largest concise Abelian subgroup D2      NOp   4
                         Standard orientation:                         
 ---------------------------------------------------------------------
 Center     Atomic      Atomic             Coordinates (Angstroms)
 Number     Number       Type             X           Y           Z
 ---------------------------------------------------------------------
      1          6           0        0.000000    0.000000    0.000000
      2          1           0        0.628740    0.628740    0.628740
      3          1           0       -0.628740   -0.628740    0.628740
      4          1           0       -0.628740    0.628740   -0.628740
      5          1           0        0.628740   -0.628740   -0.628740
 ---------------------------------------------------------------------
 Rotational constants (GHZ):         158.5622822         158.5622822         158.5622822
 Standard basis: CC-pVQZ (5D, 7F)
 There are    57 symmetry adapted cartesian basis functions of A   symmetry.
 There are    51 symmetry adapted cartesian basis functions of B1  symmetry.
 There are    51 symmetry adapted cartesian basis functions of B2  symmetry.
 There are    51 symmetry adapted cartesian basis functions of B3  symmetry.
 There are    46 symmetry adapted basis functions of A   symmetry.
 There are    43 symmetry adapted basis functions of B1  symmetry.
 There are    43 symmetry adapted basis functions of B2  symmetry.
 There are    43 symmetry adapted basis functions of B3  symmetry.
   175 basis functions,   237 primitive gaussians,   210 cartesian basis functions
     5 alpha electrons        5 beta electrons
       nuclear repulsion energy        13.4476077664 Hartrees.
 NAtoms=    5 NActive=    5 NUniq=    2 SFac= 4.00D+00 NAtFMM=   60 NAOKFM=F Big=F
 Integral buffers will be    131072 words long.
 Raffenetti 1 integral format.
 Two-electron integral symmetry is turned on.
 One-electron integrals computed using PRISM.
 NBasis=   175 RedAO= T EigKep=  1.75D-04  NBF=    46    43    43    43
 NBsUse=   175 1.00D-06 EigRej= -1.00D+00 NBFU=    46    43    43    43
 ExpMin= 8.99D-02 ExpMax= 3.40D+04 ExpMxC= 3.27D+02 IAcc=3 IRadAn=         5 AccDes= 0.00D+00
 Harris functional with IExCor=  205 and IRadAn=       5 diagonalized for initial guess.
 HarFok:  IExCor=  205 AccDes= 0.00D+00 IRadAn=         5 IDoV= 1 UseB2=F ITyADJ=14
 ICtDFT=  3500011 ScaDFX=  1.000000  1.000000  1.000000  1.000000
 FoFCou: FMM=F IPFlag=           0 FMFlag=      100000 FMFlg1=           0
         NFxFlg=           0 DoJE=T BraDBF=F KetDBF=T FulRan=T
         wScrn=  0.000000 ICntrl=       500 IOpCl=  0 I1Cent=   200000004 NGrid=           0
         NMat0=    1 NMatS0=      1 NMatT0=    0 NMatD0=    1 NMtDS0=    0 NMtDT0=    0
 Petite list used in FoFCou.
 Initial guess orbital symmetries:
       Occupied  (A1) (A1) (T2) (T2) (T2)
       Virtual   (A1) (T2) (T2) (T2) (T2) (T2) (T2) (E) (E) (A1)
                 (T2) (T2) (T2) (A1) (T2) (T2) (T2) (T1) (T1) (T1)
                 (T2) (T2) (T2) (T2) (T2) (T2) (A1) (E) (E) (T2)
                 (T2) (T2) (A1) (E) (E) (T2) (T2) (T2) (T1) (T1)
                 (T1) (T2) (T2) (T2) (A1) (T1) (T1) (T1) (E) (E)
                 (T2) (T2) (T2) (T2) (T2) (T2) (E) (E) (A1) (T1)
                 (T1) (T1) (T2) (T2) (T2) (A1) (T2) (T2) (T2) (T1)
                 (T1) (T1) (T2) (T2) (T2) (A1) (T2) (T2) (T2) (E)
                 (E) (E) (E) (T2) (T2) (T2) (T1) (T1) (T1) (T2)
                 (T2) (T2) (A2) (A1) (T1) (T1) (T1) (T2) (T2) (T2)
                 (A1) (T1) (T1) (T1) (T2) (T2) (T2) (E) (E) (T2)
                 (T2) (T2) (A1) (T1) (T1) (T1) (E) (E) (T2) (T2)
                 (T2) (T2) (T2) (T2) (E) (E) (T1) (T1) (T1) (A1)
                 (T2) (T2) (T2) (A1) (E) (E) (T1) (T1) (T1) (T2)
                 (T2) (T2) (T2) (T2) (T2) (T1) (T1) (T1) (T2) (T2)
                 (T2) (E) (E) (E) (E) (T2) (T2) (T2) (A1) (T2)
                 (T2) (T2) (T1) (T1) (T1) (A1) (T2) (T2) (T2) (A1)
 The electronic state of the initial guess is 1-A1.
 Keep R1 ints in memory in symmetry-blocked form, NReq=148281223.
 Requested convergence on RMS density matrix=1.00D-08 within 128 cycles.
 Requested convergence on MAX density matrix=1.00D-06.
 Requested convergence on             energy=1.00D-06.
 No special actions if energy rises.
 SCF Done:  E(RHF) =  -40.2161525289     A.U. after    8 cycles
            NFock=  8  Conv=0.36D-08     -V/T= 2.0012
 ExpMin= 8.99D-02 ExpMax= 3.40D+04 ExpMxC= 3.27D+02 IAcc=3 IRadAn=         5 AccDes= 0.00D+00
 HarFok:  IExCor=  205 AccDes= 0.00D+00 IRadAn=         5 IDoV=-2 UseB2=F ITyADJ=14
 ICtDFT= 12500011 ScaDFX=  1.000000  1.000000  1.000000  1.000000
 Range of M.O.s used for correlation:     2   175
 NBasis=   175 NAE=     5 NBE=     5 NFC=     1 NFV=     0
 NROrb=    174 NOA=     4 NOB=     4 NVA=   170 NVB=   170

 **** Warning!!: The largest alpha MO coefficient is  0.29509595D+02

 Semi-Direct transformation.
 ModeAB=           4 MOrb=             4 LenV=    2683412670
 LASXX=      2580351 LTotXX=     2580351 LenRXX=     5205097
 LTotAB=     2624746 MaxLAS=     5597928 LenRXY=           0
 NonZer=     7785448 LenScr=    12451840 LnRSAI=     5597928
 LnScr1=     9154560 LExtra=           0 Total=     32409425
 MaxDsk=          -1 SrtSym=           T ITran=            4
 JobTyp=0 Pass  1:  I=   1 to   4.
 (rs|ai) integrals will be sorted in core.
 Spin components of T(2) and E(2):
     alpha-alpha T2 =       0.6207189997D-02 E2=     -0.1871810889D-01
     alpha-beta  T2 =       0.5005497949D-01 E2=     -0.1726566140D+00
     beta-beta   T2 =       0.6207189997D-02 E2=     -0.1871810889D-01
 ANorm=    0.1030761543D+01
 E2 =    -0.2100928318D+00 EUMP2 =    -0.40426245360686D+02
 Keep R2 and R3 ints in memory in symmetry-blocked form, NReq=148286583.
 CIDS: In Core Option IDoMem=           1.
 Iterations=  50 Convergence= 0.100D-06
 Produce multiple copies of IABC intergrals
 Iteration Nr.   1
 **********************
 DD1Dir will call FoFMem   1 times, MxPair=        20
 NAB=    10 NAA=     0 NBB=     0.
 MP4(R+Q)=  0.43354233D-02
 E3=       -0.16021699D-01        EUMP3=      -0.40442267059D+02
 E4(DQ)=   -0.57319392D-03        UMP4(DQ)=   -0.40442840253D+02
 E4(SDQ)=  -0.16985190D-02        UMP4(SDQ)=  -0.40443965578D+02
 DE(Corr)= -0.22166411     E(Corr)=     -40.437816642    
 NORM(A)=   0.10364200D+01
 Iteration Nr.   2
 **********************
 DD1Dir will call FoFMem   1 times, MxPair=        20
 NAB=    10 NAA=     0 NBB=     0.
 DE(Corr)= -0.22660175     E(CORR)=     -40.442754281     Delta=-4.94D-03
 NORM(A)=   0.10387580D+01
 Iteration Nr.   3
 **********************
 DD1Dir will call FoFMem   1 times, MxPair=        20
 NAB=    10 NAA=     0 NBB=     0.
 DE(Corr)= -0.22748482     E(CORR)=     -40.443637354     Delta=-8.83D-04
 NORM(A)=   0.10391459D+01
 Iteration Nr.   4
 **********************
 DD1Dir will call FoFMem   1 times, MxPair=        20
 NAB=    10 NAA=     0 NBB=     0.
 DE(Corr)= -0.22778490     E(CORR)=     -40.443937433     Delta=-3.00D-04
 NORM(A)=   0.10392052D+01
 Iteration Nr.   5
 **********************
 DD1Dir will call FoFMem   1 times, MxPair=        20
 NAB=    10 NAA=     0 NBB=     0.
 DE(Corr)= -0.22780540     E(CORR)=     -40.443957926     Delta=-2.05D-05
 NORM(A)=   0.10392103D+01
 Iteration Nr.   6
 **********************
 DD1Dir will call FoFMem   1 times, MxPair=        20
 NAB=    10 NAA=     0 NBB=     0.
 DE(Corr)= -0.22780659     E(CORR)=     -40.443959117     Delta=-1.19D-06
 NORM(A)=   0.10392089D+01
 Iteration Nr.   7
 **********************
 DD1Dir will call FoFMem   1 times, MxPair=        20
 NAB=    10 NAA=     0 NBB=     0.
 DE(Corr)= -0.22780639     E(CORR)=     -40.443958916     Delta= 2.02D-07
 NORM(A)=   0.10392092D+01
 Iteration Nr.   8
 **********************
 DD1Dir will call FoFMem   1 times, MxPair=        20
 NAB=    10 NAA=     0 NBB=     0.
 DE(Corr)= -0.22780641     E(CORR)=     -40.443958939     Delta=-2.31D-08
 NORM(A)=   0.10392092D+01
 Wavefunction amplitudes converged. E(Corr)=     -40.443958939    
 Largest amplitude= 2.14D-02
 Time for triples=       48.32 seconds.
 T4(CCSD)= -0.71544747D-02
 T5(CCSD)=  0.22867803D-03
 CCSD(T)= -0.40450884735D+02
 Discarding MO integrals.

 **********************************************************************

            Population analysis using the SCF Density.

 **********************************************************************

 Orbital symmetries:
       Occupied  (A1) (A1) (T2) (T2) (T2)
       Virtual   (A1) (T2) (T2) (T2) (T2) (T2) (T2) (A1) (T2) (T2)
                 (T2) (E) (E) (A1) (T1) (T1) (T1) (T2) (T2) (T2)
                 (T2) (T2) (T2) (T2) (T2) (T2) (A1) (E) (E) (T2)
                 (T2) (T2) (A1) (E) (E) (T2) (T2) (T2) (T1) (T1)
                 (T1) (T2) (T2) (T2) (A1) (T1) (T1) (T1) (E) (E)
                 (T2) (T2) (T2) (T2) (T2) (T2) (E) (E) (A1) (T1)
                 (T1) (T1) (T2) (T2) (T2) (A1) (T2) (T2) (T2) (T1)
                 (T1) (T1) (T2) (T2) (T2) (A1) (T2) (T2) (T2) (E)
                 (E) (E) (E) (T2) (T2) (T2) (T1) (T1) (T1) (A2)
                 (T2) (T2) (T2) (T1) (T1) (T1) (A1) (A1) (T2) (T2)
                 (T2) (T1) (T1) (T1) (T2) (T2) (T2) (E) (E) (A1)
                 (T2) (T2) (T2) (T1) (T1) (T1) (E) (E) (T2) (T2)
                 (T2) (T2) (T2) (T2) (E) (E) (T1) (T1) (T1) (A1)
                 (T2) (T2) (T2) (E) (E) (A1) (T1) (T1) (T1) (T2)
                 (T2) (T2) (T2) (T2) (T2) (T1) (T1) (T1) (T2) (T2)
                 (T2) (E) (E) (E) (E) (T2) (T2) (T2) (T2) (T2)
                 (T2) (A1) (T1) (T1) (T1) (A1) (T2) (T2) (T2) (A1)
 The electronic state is 1-A1.
 Alpha  occ. eigenvalues --  -11.20586  -0.94271  -0.54496  -0.54496  -0.54496
 Alpha virt. eigenvalues --    0.11541   0.19955   0.19955   0.19955   0.27717
 Alpha virt. eigenvalues --    0.27717   0.27717   0.48515   0.53305   0.53305
 Alpha virt. eigenvalues --    0.53305   0.54020   0.54020   0.62901   0.82780
 Alpha virt. eigenvalues --    0.82780   0.82780   0.83253   0.83253   0.83253
 Alpha virt. eigenvalues --    0.95239   0.95239   0.95239   1.14906   1.14906
 Alpha virt. eigenvalues --    1.14906   1.18318   1.20819   1.20819   1.49216
 Alpha virt. eigenvalues --    1.49216   1.49216   1.53034   1.92192   1.92192
 Alpha virt. eigenvalues --    1.95314   1.95314   1.95314   2.04350   2.04350
 Alpha virt. eigenvalues --    2.04350   2.15928   2.15928   2.15928   2.33776
 Alpha virt. eigenvalues --    2.35595   2.35595   2.35595   2.48424   2.48424
 Alpha virt. eigenvalues --    2.59035   2.59035   2.59035   2.64507   2.64507
 Alpha virt. eigenvalues --    2.64507   2.75231   2.75231   2.79719   3.11086
 Alpha virt. eigenvalues --    3.11086   3.11086   3.18626   3.18626   3.18626
 Alpha virt. eigenvalues --    3.37363   3.43275   3.43275   3.43275   3.45815
 Alpha virt. eigenvalues --    3.45815   3.45815   3.66888   3.66888   3.66888
 Alpha virt. eigenvalues --    4.00581   4.12244   4.12244   4.12244   4.12957
 Alpha virt. eigenvalues --    4.12957   5.59787   5.59787   5.66049   5.66049
 Alpha virt. eigenvalues --    5.66049   5.72281   5.72281   5.72281   6.20884
 Alpha virt. eigenvalues --    6.24801   6.24801   6.24801   6.32632   6.32632
 Alpha virt. eigenvalues --    6.32632   6.36487   6.37761   6.41976   6.41976
 Alpha virt. eigenvalues --    6.41976   6.46486   6.46486   6.46486   6.53904
 Alpha virt. eigenvalues --    6.53904   6.53904   7.00816   7.00816   7.03345
 Alpha virt. eigenvalues --    7.10856   7.10856   7.10856   7.56368   7.56368
 Alpha virt. eigenvalues --    7.56368   7.63136   7.63136   7.65368   7.65368
 Alpha virt. eigenvalues --    7.65368   7.98463   7.98463   7.98463   7.99018
 Alpha virt. eigenvalues --    7.99018   8.03620   8.03620   8.03620   8.26003
 Alpha virt. eigenvalues --    8.29085   8.29085   8.29085   8.66051   8.66051
 Alpha virt. eigenvalues --    8.68891   8.73479   8.73479   8.73479   8.75331
 Alpha virt. eigenvalues --    8.75331   8.75331   8.90989   8.90989   8.90989
 Alpha virt. eigenvalues --    9.31790   9.31790   9.31790   9.39854   9.39854
 Alpha virt. eigenvalues --    9.39854   9.78190   9.78190  10.17012  10.17012
 Alpha virt. eigenvalues --   10.29428  10.29428  10.29428  10.47502  10.47502
 Alpha virt. eigenvalues --   10.47502  10.51765  10.90936  10.90936  10.90936
 Alpha virt. eigenvalues --   11.12841  12.83025  12.83025  12.83025  27.52698
          Condensed to atoms (all electrons):
               1          2          3          4          5
     1  C    4.595351   0.417633   0.417633   0.417633   0.417633
     2  H    0.417633   0.598009  -0.027371  -0.027371  -0.027371
     3  H    0.417633  -0.027371   0.598009  -0.027371  -0.027371
     4  H    0.417633  -0.027371  -0.027371   0.598009  -0.027371
     5  H    0.417633  -0.027371  -0.027371  -0.027371   0.598009
 Mulliken charges:
               1
     1  C   -0.265884
     2  H    0.066471
     3  H    0.066471
     4  H    0.066471
     5  H    0.066471
 Sum of Mulliken charges =  -0.00000
 Mulliken charges with hydrogens summed into heavy atoms:
               1
     1  C   -0.000000
 Electronic spatial extent (au):  <R**2>=             35.7112
 Charge=             -0.0000 electrons
 Dipole moment (field-independent basis, Debye):
    X=             -0.0000    Y=             -0.0000    Z=              0.0000  Tot=              0.0000
 Quadrupole moment (field-independent basis, Debye-Ang):
   XX=             -8.4158   YY=             -8.4158   ZZ=             -8.4158
   XY=             -0.0000   XZ=             -0.0000   YZ=             -0.0000
 Traceless Quadrupole moment (field-independent basis, Debye-Ang):
   XX=             -0.0000   YY=              0.0000   ZZ=              0.0000
   XY=             -0.0000   XZ=             -0.0000   YZ=             -0.0000
 Octapole moment (field-independent basis, Debye-Ang**2):
  XXX=             -0.0000  YYY=              0.0000  ZZZ=             -0.0000  XYY=             -0.0000
  XXY=             -0.0000  XXZ=              0.0000  XZZ=             -0.0000  YZZ=             -0.0000
  YYZ=             -0.0000  XYZ=              0.6995
 Hexadecapole moment (field-independent basis, Debye-Ang**3):
 XXXX=            -16.6694 YYYY=            -16.6694 ZZZZ=            -16.6694 XXXY=              0.0000
 XXXZ=             -0.0000 YYYX=             -0.0000 YYYZ=             -0.0000 ZZZX=              0.0000
 ZZZY=             -0.0000 XXYY=             -5.0024 XXZZ=             -5.0024 YYZZ=             -5.0024
 XXYZ=             -0.0000 YYXZ=             -0.0000 ZZXY=              0.0000
 N-N= 1.344760776639D+01 E-N=-1.199303195711D+02  KE= 4.016971621064D+01
 Symmetry A    KE= 3.446144731751D+01
 Symmetry B1   KE= 1.902756297712D+00
 Symmetry B2   KE= 1.902756297712D+00
 Symmetry B3   KE= 1.902756297712D+00
 Unable to Open any file for archive entry.
 1\1\GINC-LOCALHOST\SP\RCCSD(T)-FC\CC-pVQZ\C1H4\KIMARIYB\28-Jul-2023\0\
 \# CCSD(T)/cc-PVQZ\\Title Card Required\\0,1\C,0,0.,0.,0.\H,0,0.62874,
 0.62874,0.62874\H,0,-0.62874,-0.62874,0.62874\H,0,-0.62874,0.62874,-0.
 62874\H,0,0.62874,-0.62874,-0.62874\\Version=ES64L-G16RevC.01\State=1-
 A1\HF=-40.2161525\MP2=-40.4262454\MP3=-40.4422671\MP4D=-40.4471757\MP4
 DQ=-40.4428403\MP4SDQ=-40.4439656\CCSD=-40.4439589\CCSD(T)=-40.4508847
 \RMSD=3.610e-09\PG=TD [O(C1),4C3(H1)]\\@
 The archive entry for this job was punched.


 Life may have no meaning.  Or even worse, it may have a
 meaning of which I disapprove.
                                 -- Ashleigh Brilliant
 Job cpu time:       0 days  0 hours  1 minutes 35.7 seconds.
 Elapsed time:       0 days  0 hours  0 minutes  9.8 seconds.
 File lengths (MBytes):  RWF=    261 Int=      0 D2E=      0 Chk=      3 Scr=      1
 Normal termination of Gaussian 16 at Fri Jul 28 16:44:46 2023.
