 Entering Gaussian System, Link 0=g16
 Initial command:
 /kimariyb/g16/l1.exe "/kimariyb/g16/scratch/Gau-15264.inp" -scrdir="/kimariyb/g16/scratch/"
 Default is to use a total of  10 processors:
                               10 via shared-memory
                                1 via Linda
 Entering Link 1 = /kimariyb/g16/l1.exe PID=     15265.
  
 Copyright (c) 1988-2019, Gaussian, Inc.  All Rights Reserved.
  
 This is part of the Gaussian(R) 16 program.  It is based on
 the Gaussian(R) 09 system (copyright 2009, Gaussian, Inc.),
 the Gaussian(R) 03 system (copyright 2003, Gaussian, Inc.),
 the Gaussian(R) 98 system (copyright 1998, Gaussian, Inc.),
 the Gaussian(R) 94 system (copyright 1995, Gaussian, Inc.),
 the Gaussian 92(TM) system (copyright 1992, Gaussian, Inc.),
 the Gaussian 90(TM) system (copyright 1990, Gaussian, Inc.),
 the Gaussian 88(TM) system (copyright 1988, Gaussian, Inc.),
 the Gaussian 86(TM) system (copyright 1986, Carnegie Mellon
 University), and the Gaussian 82(TM) system (copyright 1983,
 Carnegie Mellon University). Gaussian is a federally registered
 trademark of Gaussian, Inc.
  
 This software contains proprietary and confidential information,
 including trade secrets, belonging to Gaussian, Inc.
  
 This software is provided under written license and may be
 used, copied, transmitted, or stored only in accord with that
 written license.
  
 The following legend is applicable only to US Government
 contracts under FAR:
  
                    RESTRICTED RIGHTS LEGEND
  
 Use, reproduction and disclosure by the US Government is
 subject to restrictions as set forth in subparagraphs (a)
 and (c) of the Commercial Computer Software - Restricted
 Rights clause in FAR 52.227-19.
  
 Gaussian, Inc.
 340 Quinnipiac St., Bldg. 40, Wallingford CT 06492
  
  
 ---------------------------------------------------------------
 Warning -- This program may not be used in any manner that
 competes with the business of Gaussian, Inc. or will provide
 assistance to any competitor of Gaussian, Inc.  The licensee
 of this program is prohibited from giving any competitor of
 Gaussian, Inc. access to this program.  By using this program,
 the user acknowledges that Gaussian, Inc. is engaged in the
 business of creating and licensing software in the field of
 computational chemistry and represents and warrants to the
 licensee that it is not a competitor of Gaussian, Inc. and that
 it will not use this program in any manner prohibited above.
 ---------------------------------------------------------------
  

 Cite this work as:
 Gaussian 16, Revision C.01,
 M. J. Frisch, G. W. Trucks, H. B. Schlegel, G. E. Scuseria, 
 M. A. Robb, J. R. Cheeseman, G. Scalmani, V. Barone, 
 G. A. Petersson, H. Nakatsuji, X. Li, M. Caricato, A. V. Marenich, 
 J. Bloino, B. G. Janesko, R. Gomperts, B. Mennucci, H. P. Hratchian, 
 J. V. Ortiz, A. F. Izmaylov, J. L. Sonnenberg, D. Williams-Young, 
 F. Ding, F. Lipparini, F. Egidi, J. Goings, B. Peng, A. Petrone, 
 T. Henderson, D. Ranasinghe, V. G. Zakrzewski, J. Gao, N. Rega, 
 G. Zheng, W. Liang, M. Hada, M. Ehara, K. Toyota, R. Fukuda, 
 J. Hasegawa, M. Ishida, T. Nakajima, Y. Honda, O. Kitao, H. Nakai, 
 T. Vreven, K. Throssell, J. A. Montgomery, Jr., J. E. Peralta, 
 F. Ogliaro, M. J. Bearpark, J. J. Heyd, E. N. Brothers, K. N. Kudin, 
 V. N. Staroverov, T. A. Keith, R. Kobayashi, J. Normand, 
 K. Raghavachari, A. P. Rendell, J. C. Burant, S. S. Iyengar, 
 J. Tomasi, M. Cossi, J. M. Millam, M. Klene, C. Adamo, R. Cammi, 
 J. W. Ochterski, R. L. Martin, K. Morokuma, O. Farkas, 
 J. B. Foresman, and D. J. Fox, Gaussian, Inc., Wallingford CT, 2019.
 
 ******************************************
 Gaussian 16:  ES64L-G16RevC.01  3-Jul-2019
                28-Jul-2023 
 ******************************************
 -----------------
 # CCSD(T)/cc-PVQZ
 -----------------
 1/38=1,172=1/1;
 2/12=2,17=6,18=5,40=1/2;
 3/5=16,6=2,11=9,25=1,30=1/1,2,3;
 4//1;
 5/5=2,38=5/2;
 8/6=4,9=120000,10=1/1,4;
 9/5=7,14=2/13;
 6/7=2,8=2,9=2,10=2/1;
 99/5=1,9=1/99;
 -------------------
 Title Card Required
 -------------------
 Symbolic Z-matrix:
 Charge =  0 Multiplicity = 1
 H                     0.        0.        0.37196 
 H                     0.        0.       -0.37196 
 
                          Input orientation:                          
 ---------------------------------------------------------------------
 Center     Atomic      Atomic             Coordinates (Angstroms)
 Number     Number       Type             X           Y           Z
 ---------------------------------------------------------------------
      1          1           0        0.000000    0.000000    0.371961
      2          1           0        0.000000    0.000000   -0.371961
 ---------------------------------------------------------------------
 Stoichiometry    H2
 Framework group  D*H[C*(H.H)]
 Deg. of freedom     1
 Full point group                 D*H     NOp   8
 Largest Abelian subgroup         D2H     NOp   8
 Largest concise Abelian subgroup C2      NOp   2
                         Standard orientation:                         
 ---------------------------------------------------------------------
 Center     Atomic      Atomic             Coordinates (Angstroms)
 Number     Number       Type             X           Y           Z
 ---------------------------------------------------------------------
      1          1           0        0.000000    0.000000    0.371961
      2          1           0        0.000000    0.000000   -0.371961
 ---------------------------------------------------------------------
 Rotational constants (GHZ):           0.0000000        1812.2046798        1812.2046798
 Standard basis: CC-pVQZ (5D, 7F)
 There are    16 symmetry adapted cartesian basis functions of AG  symmetry.
 There are     3 symmetry adapted cartesian basis functions of B1G symmetry.
 There are     8 symmetry adapted cartesian basis functions of B2G symmetry.
 There are     8 symmetry adapted cartesian basis functions of B3G symmetry.
 There are     3 symmetry adapted cartesian basis functions of AU  symmetry.
 There are    16 symmetry adapted cartesian basis functions of B1U symmetry.
 There are     8 symmetry adapted cartesian basis functions of B2U symmetry.
 There are     8 symmetry adapted cartesian basis functions of B3U symmetry.
 There are    13 symmetry adapted basis functions of AG  symmetry.
 There are     3 symmetry adapted basis functions of B1G symmetry.
 There are     7 symmetry adapted basis functions of B2G symmetry.
 There are     7 symmetry adapted basis functions of B3G symmetry.
 There are     3 symmetry adapted basis functions of AU  symmetry.
 There are    13 symmetry adapted basis functions of B1U symmetry.
 There are     7 symmetry adapted basis functions of B2U symmetry.
 There are     7 symmetry adapted basis functions of B3U symmetry.
    60 basis functions,    74 primitive gaussians,    70 cartesian basis functions
     1 alpha electrons        1 beta electrons
       nuclear repulsion energy         0.7113342675 Hartrees.
 NAtoms=    2 NActive=    2 NUniq=    1 SFac= 4.00D+00 NAtFMM=   60 NAOKFM=F Big=F
 Integral buffers will be    131072 words long.
 Raffenetti 1 integral format.
 Two-electron integral symmetry is turned on.
 One-electron integrals computed using PRISM.
 NBasis=    60 RedAO= T EigKep=  3.29D-04  NBF=    13     3     7     7     3    13     7     7
 NBsUse=    60 1.00D-06 EigRej= -1.00D+00 NBFU=    13     3     7     7     3    13     7     7
 ExpMin= 8.99D-02 ExpMax= 8.26D+01 ExpMxC= 8.26D+01 IAcc=3 IRadAn=         5 AccDes= 0.00D+00
 Harris functional with IExCor=  205 and IRadAn=       5 diagonalized for initial guess.
 HarFok:  IExCor=  205 AccDes= 0.00D+00 IRadAn=         5 IDoV= 1 UseB2=F ITyADJ=14
 ICtDFT=  3500011 ScaDFX=  1.000000  1.000000  1.000000  1.000000
 FoFCou: FMM=F IPFlag=           0 FMFlag=      100000 FMFlg1=           0
         NFxFlg=           0 DoJE=T BraDBF=F KetDBF=T FulRan=T
         wScrn=  0.000000 ICntrl=       500 IOpCl=  0 I1Cent=   200000004 NGrid=           0
         NMat0=    1 NMatS0=      1 NMatT0=    0 NMatD0=    1 NMtDS0=    0 NMtDT0=    0
 Petite list used in FoFCou.
 Initial guess orbital symmetries:
       Occupied  (SGG)
       Virtual   (SGU) (SGG) (PIU) (PIU) (SGU) (SGG) (PIG) (PIG)
                 (SGU) (SGG) (SGU) (DLTG) (DLTG) (PIU) (PIU) (SGG)
                 (PIG) (PIG) (PIU) (PIU) (DLTU) (DLTU) (SGU) (SGG)
                 (PIG) (PIG) (SGU) (SGG) (PHIU) (PHIU) (DLTG) (DLTG)
                 (PHIG) (PHIG) (PIU) (PIU) (PIG) (PIG) (SGG) (DLTU)
                 (DLTU) (SGU) (DLTG) (DLTG) (PIU) (PIU) (SGU) (PIG)
                 (PIG) (SGG) (PIU) (PIU) (DLTU) (DLTU) (SGU) (PIG)
                 (PIG) (SGG) (SGU)
 The electronic state of the initial guess is 1-SGG.
 Keep R1 ints in memory in symmetry-blocked form, NReq=5574309.
 Requested convergence on RMS density matrix=1.00D-08 within 128 cycles.
 Requested convergence on MAX density matrix=1.00D-06.
 Requested convergence on             energy=1.00D-06.
 No special actions if energy rises.
 SCF Done:  E(RHF) =  -1.13342207647     A.U. after    6 cycles
            NFock=  6  Conv=0.11D-08     -V/T= 2.0098
 Range of M.O.s used for correlation:     1    60
 NBasis=    60 NAE=     1 NBE=     1 NFC=     0 NFV=     0
 NROrb=     60 NOA=     1 NOB=     1 NVA=    59 NVB=    59

 **** Warning!!: The largest alpha MO coefficient is  0.23381296D+02

 Semi-Direct transformation.
 ModeAB=           4 MOrb=             1 LenV=    2684076579
 LASXX=        13868 LTotXX=       13868 LenRXX=       28750
 LTotAB=       14882 MaxLAS=       85680 LenRXY=           0
 NonZer=       42618 LenScr=      785920 LnRSAI=       85680
 LnScr1=      785920 LExtra=           0 Total=      1686270
 MaxDsk=          -1 SrtSym=           T ITran=            4
 JobTyp=0 Pass  1:  I=   1 to   1.
 (rs|ai) integrals will be sorted in core.
 Spin components of T(2) and E(2):
     alpha-alpha T2 =       0.0000000000D+00 E2=      0.0000000000D+00
     alpha-beta  T2 =       0.1040379627D-01 E2=     -0.3312442709D-01
     beta-beta   T2 =       0.0000000000D+00 E2=      0.0000000000D+00
 ANorm=    0.1005188438D+01
 E2 =    -0.3312442709D-01 EUMP2 =    -0.11665465035657D+01
 Keep R2 and R3 ints in memory in symmetry-blocked form, NReq=5577037.
 CIDS: In Core Option IDoMem=           1.
 Iterations=  50 Convergence= 0.100D-06
 Produce multiple copies of IABC intergrals
 Iteration Nr.   1
 **********************
 DD1Dir will call FoFMem   1 times, MxPair=         2
 NAB=     1 NAA=     0 NBB=     0.
 MP4(R+Q)=  0.34461979D-03
 E3=       -0.51376549D-02        EUMP3=      -0.11716841584D+01
 E4(DQ)=   -0.14090634D-02        UMP4(DQ)=   -0.11730932218D+01
 E4(SDQ)=  -0.14868016D-02        UMP4(SDQ)=  -0.11731709600D+01
 DE(Corr)= -0.37915016E-01 E(Corr)=     -1.1713370927    
 NORM(A)=   0.10080849D+01
 Iteration Nr.   2
 **********************
 DD1Dir will call FoFMem   1 times, MxPair=         2
 NAB=     1 NAA=     0 NBB=     0.
 DE(Corr)= -0.39816723E-01 E(CORR)=     -1.1732387994     Delta=-1.90D-03
 NORM(A)=   0.10090815D+01
 Iteration Nr.   3
 **********************
 DD1Dir will call FoFMem   1 times, MxPair=         2
 NAB=     1 NAA=     0 NBB=     0.
 DE(Corr)= -0.40324945E-01 E(CORR)=     -1.1737470216     Delta=-5.08D-04
 NORM(A)=   0.10091644D+01
 Iteration Nr.   4
 **********************
 DD1Dir will call FoFMem   1 times, MxPair=         2
 NAB=     1 NAA=     0 NBB=     0.
 DE(Corr)= -0.40368571E-01 E(CORR)=     -1.1737906479     Delta=-4.36D-05
 NORM(A)=   0.10091750D+01
 Iteration Nr.   5
 **********************
 DD1Dir will call FoFMem   1 times, MxPair=         2
 NAB=     1 NAA=     0 NBB=     0.
 DE(Corr)= -0.40371804E-01 E(CORR)=     -1.1737938805     Delta=-3.23D-06
 NORM(A)=   0.10091745D+01
 Iteration Nr.   6
 **********************
 DD1Dir will call FoFMem   1 times, MxPair=         2
 NAB=     1 NAA=     0 NBB=     0.
 DE(Corr)= -0.40371595E-01 E(CORR)=     -1.1737936719     Delta= 2.09D-07
 NORM(A)=   0.10091745D+01
 Iteration Nr.   7
 **********************
 DD1Dir will call FoFMem   1 times, MxPair=         2
 NAB=     1 NAA=     0 NBB=     0.
 DE(Corr)= -0.40371607E-01 E(CORR)=     -1.1737936840     Delta=-1.20D-08
 NORM(A)=   0.10091745D+01
 Wavefunction amplitudes converged. E(Corr)=     -1.1737936840    
 Largest amplitude= 5.52D-02
 Time for triples=        0.00 seconds.
 T4(CCSD)=  0.00000000D+00
 T5(CCSD)=  0.00000000D+00
 CCSD(T)= -0.11737936840D+01
 Discarding MO integrals.

 **********************************************************************

            Population analysis using the SCF Density.

 **********************************************************************

 Orbital symmetries:
       Occupied  (SGG)
       Virtual   (SGU) (SGG) (PIU) (PIU) (SGU) (SGG) (PIG) (PIG)
                 (SGU) (SGG) (SGU) (DLTG) (DLTG) (PIU) (PIU) (SGG)
                 (PIG) (PIG) (DLTU) (DLTU) (PIU) (PIU) (SGU) (SGG)
                 (PIG) (PIG) (SGU) (SGG) (PHIU) (PHIU) (DLTG) (DLTG)
                 (PHIG) (PHIG) (PIU) (PIU) (PIG) (PIG) (SGG) (DLTU)
                 (DLTU) (SGU) (PIU) (PIU) (DLTG) (DLTG) (SGU) (PIG)
                 (PIG) (SGG) (PIU) (PIU) (DLTU) (DLTU) (SGU) (PIG)
                 (PIG) (SGG) (SGU)
 The electronic state is 1-SGG.
 Alpha  occ. eigenvalues --   -0.59368
 Alpha virt. eigenvalues --    0.14731   0.23182   0.50978   0.50978   0.52082
 Alpha virt. eigenvalues --    0.80223   0.81477   0.81477   1.10620   1.31334
 Alpha virt. eigenvalues --    1.58251   1.94142   1.94142   2.15314   2.15314
 Alpha virt. eigenvalues --    2.35354   2.36421   2.36421   2.55321   2.55321
 Alpha virt. eigenvalues --    2.55680   2.55680   3.00863   3.34265   3.60967
 Alpha virt. eigenvalues --    3.60967   3.99536   5.59251   5.70414   5.70414
 Alpha virt. eigenvalues --    6.22925   6.22925   6.74426   6.74426   6.99260
 Alpha virt. eigenvalues --    6.99260   7.08366   7.08366   7.36758   7.61777
 Alpha virt. eigenvalues --    7.61777   7.73796   7.98582   7.98582   7.99694
 Alpha virt. eigenvalues --    7.99694   8.26212   8.39237   8.39237   8.53218
 Alpha virt. eigenvalues --    8.81494   8.81494   9.19366   9.19366  10.47426
 Alpha virt. eigenvalues --   12.72093  12.72093  12.97971  16.09971
          Condensed to atoms (all electrons):
               1          2
     1  H    0.573283   0.426717
     2  H    0.426717   0.573283
 Mulliken charges:
               1
     1  H   -0.000000
     2  H   -0.000000
 Sum of Mulliken charges =  -0.00000
 Mulliken charges with hydrogens summed into heavy atoms:
               1
 Electronic spatial extent (au):  <R**2>=              5.1731
 Charge=             -0.0000 electrons
 Dipole moment (field-independent basis, Debye):
    X=             -0.0000    Y=             -0.0000    Z=             -0.0000  Tot=              0.0000
 Quadrupole moment (field-independent basis, Debye-Ang):
   XX=             -2.0945   YY=             -2.0945   ZZ=             -1.4398
   XY=             -0.0000   XZ=             -0.0000   YZ=              0.0000
 Traceless Quadrupole moment (field-independent basis, Debye-Ang):
   XX=             -0.2182   YY=             -0.2182   ZZ=              0.4364
   XY=             -0.0000   XZ=             -0.0000   YZ=              0.0000
 Octapole moment (field-independent basis, Debye-Ang**2):
  XXX=             -0.0000  YYY=             -0.0000  ZZZ=              0.0000  XYY=             -0.0000
  XXY=              0.0000  XXZ=              0.0000  XZZ=             -0.0000  YZZ=              0.0000
  YYZ=              0.0000  XYZ=              0.0000
 Hexadecapole moment (field-independent basis, Debye-Ang**3):
 XXXX=             -2.0933 YYYY=             -2.0933 ZZZZ=             -2.7915 XXXY=             -0.0000
 XXXZ=              0.0000 YYYX=             -0.0000 YYYZ=              0.0000 ZZZX=              0.0000
 ZZZY=              0.0000 XXYY=             -0.6978 XXZZ=             -0.8332 YYZZ=             -0.8332
 XXYZ=              0.0000 YYXZ=              0.0000 ZZXY=             -0.0000
 N-N= 7.113342674635D-01 E-N=-3.624591835257D+00  KE= 1.122438506986D+00
 Symmetry AG   KE= 1.122438506986D+00
 Symmetry B1G  KE=-1.155894508464D-54
 Symmetry B2G  KE= 1.826819383977D-31
 Symmetry B3G  KE= 1.826819383977D-31
 Symmetry AU   KE= 6.510412696013D-65
 Symmetry B1U  KE= 1.438572867255D-23
 Symmetry B2U  KE= 7.680008616599D-34
 Symmetry B3U  KE= 7.680008616599D-34
 Unable to Open any file for archive entry.
 1\1\GINC-LOCALHOST\SP\RCCSD(T)-FC\CC-pVQZ\H2\KIMARIYB\28-Jul-2023\0\\#
  CCSD(T)/cc-PVQZ\\Title Card Required\\0,1\H,0,0.,0.,0.371961\H,0,0.,0
 .,-0.371961\\Version=ES64L-G16RevC.01\State=1-SGG\HF=-1.1334221\MP2=-1
 .1665465\MP3=-1.1716842\MP4D=-1.1734378\MP4DQ=-1.1730932\MP4SDQ=-1.173
 171\CCSD=-1.1737937\CCSD(T)=-1.1737937\RMSD=1.100e-09\PG=D*H [C*(H1.H1
 )]\\@
 The archive entry for this job was punched.


 THE POLHOLDE ROLLS WITHOUT SLIPPING ON THE HERPOLHOLDE LYING IN
 THE INVARIABLE PLANE.
 H.GOLDSTEIN, "CLASSICAL MECHANICS", PG 161
 Job cpu time:       0 days  0 hours  0 minutes  6.0 seconds.
 Elapsed time:       0 days  0 hours  0 minutes  0.7 seconds.
 File lengths (MBytes):  RWF=     20 Int=      0 D2E=      0 Chk=      1 Scr=      1
 Normal termination of Gaussian 16 at Fri Jul 28 16:44:47 2023.
