 Entering Gaussian System, Link 0=g16
 Initial command:
 /kimariyb/g16/l1.exe "/kimariyb/g16/scratch/Gau-12798.inp" -scrdir="/kimariyb/g16/scratch/"
 Default is to use a total of  10 processors:
                               10 via shared-memory
                                1 via Linda
 Entering Link 1 = /kimariyb/g16/l1.exe PID=     12799.
  
 Copyright (c) 1988-2019, Gaussian, Inc.  All Rights Reserved.
  
 This is part of the Gaussian(R) 16 program.  It is based on
 the Gaussian(R) 09 system (copyright 2009, Gaussian, Inc.),
 the Gaussian(R) 03 system (copyright 2003, Gaussian, Inc.),
 the Gaussian(R) 98 system (copyright 1998, Gaussian, Inc.),
 the Gaussian(R) 94 system (copyright 1995, Gaussian, Inc.),
 the Gaussian 92(TM) system (copyright 1992, Gaussian, Inc.),
 the Gaussian 90(TM) system (copyright 1990, Gaussian, Inc.),
 the Gaussian 88(TM) system (copyright 1988, Gaussian, Inc.),
 the Gaussian 86(TM) system (copyright 1986, Carnegie Mellon
 University), and the Gaussian 82(TM) system (copyright 1983,
 Carnegie Mellon University). Gaussian is a federally registered
 trademark of Gaussian, Inc.
  
 This software contains proprietary and confidential information,
 including trade secrets, belonging to Gaussian, Inc.
  
 This software is provided under written license and may be
 used, copied, transmitted, or stored only in accord with that
 written license.
  
 The following legend is applicable only to US Government
 contracts under FAR:
  
                    RESTRICTED RIGHTS LEGEND
  
 Use, reproduction and disclosure by the US Government is
 subject to restrictions as set forth in subparagraphs (a)
 and (c) of the Commercial Computer Software - Restricted
 Rights clause in FAR 52.227-19.
  
 Gaussian, Inc.
 340 Quinnipiac St., Bldg. 40, Wallingford CT 06492
  
  
 ---------------------------------------------------------------
 Warning -- This program may not be used in any manner that
 competes with the business of Gaussian, Inc. or will provide
 assistance to any competitor of Gaussian, Inc.  The licensee
 of this program is prohibited from giving any competitor of
 Gaussian, Inc. access to this program.  By using this program,
 the user acknowledges that Gaussian, Inc. is engaged in the
 business of creating and licensing software in the field of
 computational chemistry and represents and warrants to the
 licensee that it is not a competitor of Gaussian, Inc. and that
 it will not use this program in any manner prohibited above.
 ---------------------------------------------------------------
  

 Cite this work as:
 Gaussian 16, Revision C.01,
 M. J. Frisch, G. W. Trucks, H. B. Schlegel, G. E. Scuseria, 
 M. A. Robb, J. R. Cheeseman, G. Scalmani, V. Barone, 
 G. A. Petersson, H. Nakatsuji, X. Li, M. Caricato, A. V. Marenich, 
 J. Bloino, B. G. Janesko, R. Gomperts, B. Mennucci, H. P. Hratchian, 
 J. V. Ortiz, A. F. Izmaylov, J. L. Sonnenberg, D. Williams-Young, 
 F. Ding, F. Lipparini, F. Egidi, J. Goings, B. Peng, A. Petrone, 
 T. Henderson, D. Ranasinghe, V. G. Zakrzewski, J. Gao, N. Rega, 
 G. Zheng, W. Liang, M. Hada, M. Ehara, K. Toyota, R. Fukuda, 
 J. Hasegawa, M. Ishida, T. Nakajima, Y. Honda, O. Kitao, H. Nakai, 
 T. Vreven, K. Throssell, J. A. Montgomery, Jr., J. E. Peralta, 
 F. Ogliaro, M. J. Bearpark, J. J. Heyd, E. N. Brothers, K. N. Kudin, 
 V. N. Staroverov, T. A. Keith, R. Kobayashi, J. Normand, 
 K. Raghavachari, A. P. Rendell, J. C. Burant, S. S. Iyengar, 
 J. Tomasi, M. Cossi, J. M. Millam, M. Klene, C. Adamo, R. Cammi, 
 J. W. Ochterski, R. L. Martin, K. Morokuma, O. Farkas, 
 J. B. Foresman, and D. J. Fox, Gaussian, Inc., Wallingford CT, 2019.
 
 ******************************************
 Gaussian 16:  ES64L-G16RevC.01  3-Jul-2019
                28-Jul-2023 
 ******************************************
 -------------------------
 # opt freq B3LYP/def2TZVP
 -------------------------
 1/18=20,19=15,26=3,38=1/1,3;
 2/9=110,12=2,17=6,18=5,40=1/2;
 3/5=44,7=101,11=2,25=1,30=1,71=1,74=-5/1,2,3;
 4//1;
 5/5=2,38=5/2;
 6/7=2,8=2,9=2,10=2,28=1/1;
 7//1,2,3,16;
 1/18=20,19=15,26=3/3(2);
 2/9=110/2;
 99//99;
 2/9=110/2;
 3/5=44,7=101,11=2,25=1,30=1,71=1,74=-5/1,2,3;
 4/5=5,16=3,69=1/1;
 5/5=2,38=5/2;
 7//1,2,3,16;
 1/18=20,19=15,26=3/3(-5);
 2/9=110/2;
 6/7=2,8=2,9=2,10=2,19=2,28=1/1;
 99/9=1/99;
 -------------------
 Title Card Required
 -------------------
 Symbolic Z-matrix:
 Charge =  0 Multiplicity = 1
 C                     0.        0.        0. 
 H                     0.        0.        1.07 
 H                     0.       -1.00881  -0.35667 
 H                    -0.87365   0.5044   -0.35667 
 H                     0.87365   0.5044   -0.35667 
 

 GradGradGradGradGradGradGradGradGradGradGradGradGradGradGradGradGradGrad
 Berny optimization.
 Initialization pass.
                           ----------------------------
                           !    Initial Parameters    !
                           ! (Angstroms and Degrees)  !
 --------------------------                            --------------------------
 ! Name  Definition              Value          Derivative Info.                !
 --------------------------------------------------------------------------------
 ! R1    R(1,2)                  1.07           estimate D2E/DX2                !
 ! R2    R(1,3)                  1.07           estimate D2E/DX2                !
 ! R3    R(1,4)                  1.07           estimate D2E/DX2                !
 ! R4    R(1,5)                  1.07           estimate D2E/DX2                !
 ! A1    A(2,1,3)              109.4712         estimate D2E/DX2                !
 ! A2    A(2,1,4)              109.4712         estimate D2E/DX2                !
 ! A3    A(2,1,5)              109.4712         estimate D2E/DX2                !
 ! A4    A(3,1,4)              109.4712         estimate D2E/DX2                !
 ! A5    A(3,1,5)              109.4712         estimate D2E/DX2                !
 ! A6    A(4,1,5)              109.4712         estimate D2E/DX2                !
 ! D1    D(2,1,4,3)           -120.0            estimate D2E/DX2                !
 ! D2    D(2,1,5,3)            120.0            estimate D2E/DX2                !
 ! D3    D(2,1,5,4)           -120.0            estimate D2E/DX2                !
 ! D4    D(3,1,5,4)            120.0            estimate D2E/DX2                !
 --------------------------------------------------------------------------------
 Trust Radius=3.00D-01 FncErr=1.00D-07 GrdErr=1.00D-06 EigMax=2.50D+02 EigMin=1.00D-04
 Number of steps in this run=     24 maximum allowed number of steps=    100.
 GradGradGradGradGradGradGradGradGradGradGradGradGradGradGradGradGradGrad

                          Input orientation:                          
 ---------------------------------------------------------------------
 Center     Atomic      Atomic             Coordinates (Angstroms)
 Number     Number       Type             X           Y           Z
 ---------------------------------------------------------------------
      1          6           0        0.000000    0.000000    0.000000
      2          1           0        0.000000    0.000000    1.070000
      3          1           0        0.000000   -1.008806   -0.356667
      4          1           0       -0.873651    0.504403   -0.356667
      5          1           0        0.873651    0.504403   -0.356667
 ---------------------------------------------------------------------
                    Distance matrix (angstroms):
                    1          2          3          4          5
     1  C    0.000000
     2  H    1.070000   0.000000
     3  H    1.070000   1.747303   0.000000
     4  H    1.070000   1.747303   1.747303   0.000000
     5  H    1.070000   1.747303   1.747303   1.747303   0.000000
 Stoichiometry    CH4
 Framework group  TD[O(C),4C3(H)]
 Deg. of freedom     1
 Full point group                 TD      NOp  24
 Largest Abelian subgroup         D2      NOp   4
 Largest concise Abelian subgroup D2      NOp   4
                         Standard orientation:                         
 ---------------------------------------------------------------------
 Center     Atomic      Atomic             Coordinates (Angstroms)
 Number     Number       Type             X           Y           Z
 ---------------------------------------------------------------------
      1          6           0        0.000000    0.000000    0.000000
      2          1           0        0.617765    0.617765    0.617765
      3          1           0       -0.617765   -0.617765    0.617765
      4          1           0       -0.617765    0.617765   -0.617765
      5          1           0        0.617765   -0.617765   -0.617765
 ---------------------------------------------------------------------
 Rotational constants (GHZ):         164.2463784         164.2463784         164.2463784
 Standard basis: def2TZVP (5D, 7F)
 There are    18 symmetry adapted cartesian basis functions of A   symmetry.
 There are    14 symmetry adapted cartesian basis functions of B1  symmetry.
 There are    14 symmetry adapted cartesian basis functions of B2  symmetry.
 There are    14 symmetry adapted cartesian basis functions of B3  symmetry.
 There are    16 symmetry adapted basis functions of A   symmetry.
 There are    13 symmetry adapted basis functions of B1  symmetry.
 There are    13 symmetry adapted basis functions of B2  symmetry.
 There are    13 symmetry adapted basis functions of B3  symmetry.
    55 basis functions,    83 primitive gaussians,    60 cartesian basis functions
     5 alpha electrons        5 beta electrons
       nuclear repulsion energy        13.6865185501 Hartrees.
 NAtoms=    5 NActive=    5 NUniq=    2 SFac= 4.00D+00 NAtFMM=   60 NAOKFM=F Big=F
 Integral buffers will be    131072 words long.
 Raffenetti 2 integral format.
 Two-electron integral symmetry is turned on.
 One-electron integrals computed using PRISM.
  24 Symmetry operations used in ECPInt.
 ECPInt:  NShTT=     378 NPrTT=    1024 LenC2=     379 LenP2D=     994.
 LDataN:  DoStor=T MaxTD1= 6 Len=  172
 NBasis=    55 RedAO= T EigKep=  1.33D-03  NBF=    16    13    13    13
 NBsUse=    55 1.00D-06 EigRej= -1.00D+00 NBFU=    16    13    13    13
 ExpMin= 9.52D-02 ExpMax= 1.36D+04 ExpMxC= 4.63D+02 IAcc=3 IRadAn=         5 AccDes= 0.00D+00
 Harris functional with IExCor=  402 and IRadAn=       5 diagonalized for initial guess.
 HarFok:  IExCor=  402 AccDes= 0.00D+00 IRadAn=         5 IDoV= 1 UseB2=F ITyADJ=14
 ICtDFT=  3500011 ScaDFX=  1.000000  1.000000  1.000000  1.000000
 FoFCou: FMM=F IPFlag=           0 FMFlag=      100000 FMFlg1=           0
         NFxFlg=           0 DoJE=T BraDBF=F KetDBF=T FulRan=T
         wScrn=  0.000000 ICntrl=       500 IOpCl=  0 I1Cent=   200000004 NGrid=           0
         NMat0=    1 NMatS0=      1 NMatT0=    0 NMatD0=    1 NMtDS0=    0 NMtDT0=    0
 Petite list used in FoFCou.
 Initial guess orbital symmetries:
       Occupied  (A1) (A1) (T2) (T2) (T2)
       Virtual   (A1) (T2) (T2) (T2) (T2) (T2) (T2) (A1) (T2) (T2)
                 (T2) (A1) (E) (E) (T2) (T2) (T2) (T2) (T2) (T2)
                 (A1) (T1) (T1) (T1) (A1) (T2) (T2) (T2) (T2) (T2)
                 (T2) (E) (E) (T2) (T2) (T2) (E) (E) (A1) (T1)
                 (T1) (T1) (T2) (T2) (T2) (T2) (T2) (T2) (A1) (A1)
 The electronic state of the initial guess is 1-A1.
 Keep R1 ints in memory in symmetry-blocked form, NReq=10043311.
 Requested convergence on RMS density matrix=1.00D-08 within 128 cycles.
 Requested convergence on MAX density matrix=1.00D-06.
 Requested convergence on             energy=1.00D-06.
 No special actions if energy rises.
 Integral accuracy reduced to 1.0D-05 until final iterations.
 Initial convergence to 1.0D-05 achieved.  Increase integral accuracy.
 SCF Done:  E(RB3LYP) =  -40.5365657206     A.U. after    8 cycles
            NFock=  8  Conv=0.26D-08     -V/T= 2.0042

 **********************************************************************

            Population analysis using the SCF Density.

 **********************************************************************

 Orbital symmetries:
       Occupied  (A1) (A1) (T2) (T2) (T2)
       Virtual   (A1) (T2) (T2) (T2) (T2) (T2) (T2) (A1) (T2) (T2)
                 (T2) (A1) (E) (E) (T2) (T2) (T2) (A1) (T2) (T2)
                 (T2) (T1) (T1) (T1) (A1) (T2) (T2) (T2) (T2) (T2)
                 (T2) (E) (E) (T2) (T2) (T2) (E) (E) (A1) (T1)
                 (T1) (T1) (T2) (T2) (T2) (T2) (T2) (T2) (A1) (A1)
 The electronic state is 1-A1.
 Alpha  occ. eigenvalues --  -10.14552  -0.70270  -0.39886  -0.39886  -0.39886
 Alpha virt. eigenvalues --    0.05028   0.12700   0.12700   0.12700   0.19566
 Alpha virt. eigenvalues --    0.19566   0.19566   0.39180   0.47892   0.47892
 Alpha virt. eigenvalues --    0.47892   0.54236   0.59384   0.59384   0.92829
 Alpha virt. eigenvalues --    0.92829   0.92829   1.47469   1.47492   1.47492
 Alpha virt. eigenvalues --    1.47492   1.54643   1.54643   1.54643   1.94498
 Alpha virt. eigenvalues --    1.99571   1.99571   1.99571   2.24946   2.24946
 Alpha virt. eigenvalues --    2.24946   2.41258   2.41258   2.59752   2.59752
 Alpha virt. eigenvalues --    2.59752   2.98886   2.98886   3.03438   3.38048
 Alpha virt. eigenvalues --    3.38048   3.38048   3.50805   3.50805   3.50805
 Alpha virt. eigenvalues --    4.24248   4.24248   4.24248   4.50352  22.28076
          Condensed to atoms (all electrons):
               1          2          3          4          5
     1  C    4.865524   0.400765   0.400765   0.400765   0.400765
     2  H    0.400765   0.557835  -0.025248  -0.025248  -0.025248
     3  H    0.400765  -0.025248   0.557835  -0.025248  -0.025248
     4  H    0.400765  -0.025248  -0.025248   0.557835  -0.025248
     5  H    0.400765  -0.025248  -0.025248  -0.025248   0.557835
 Mulliken charges:
               1
     1  C   -0.468583
     2  H    0.117146
     3  H    0.117146
     4  H    0.117146
     5  H    0.117146
 Sum of Mulliken charges =  -0.00000
 Mulliken charges with hydrogens summed into heavy atoms:
               1
     1  C   -0.000000
 Electronic spatial extent (au):  <R**2>=             35.1869
 Charge=             -0.0000 electrons
 Dipole moment (field-independent basis, Debye):
    X=             -0.0000    Y=             -0.0000    Z=             -0.0000  Tot=              0.0000
 Quadrupole moment (field-independent basis, Debye-Ang):
   XX=             -8.4436   YY=             -8.4436   ZZ=             -8.4436
   XY=             -0.0000   XZ=             -0.0000   YZ=              0.0000
 Traceless Quadrupole moment (field-independent basis, Debye-Ang):
   XX=              0.0000   YY=              0.0000   ZZ=             -0.0000
   XY=             -0.0000   XZ=             -0.0000   YZ=              0.0000
 Octapole moment (field-independent basis, Debye-Ang**2):
  XXX=              0.0000  YYY=             -0.0000  ZZZ=              0.0000  XYY=             -0.0000
  XXY=             -0.0000  XXZ=              0.0000  XZZ=              0.0000  YZZ=              0.0000
  YYZ=              0.0000  XYZ=              0.6626
 Hexadecapole moment (field-independent basis, Debye-Ang**3):
 XXXX=            -16.8235 YYYY=            -16.8235 ZZZZ=            -16.8235 XXXY=             -0.0000
 XXXZ=             -0.0000 YYYX=             -0.0000 YYYZ=             -0.0000 ZZZX=              0.0000
 ZZZY=              0.0000 XXYY=             -5.1477 XXZZ=             -5.1477 YYZZ=             -5.1477
 XXYZ=             -0.0000 YYXZ=              0.0000 ZZXY=             -0.0000
 N-N= 1.368651855011D+01 E-N=-1.206810788600D+02  KE= 4.036735925822D+01
 Symmetry A    KE= 3.443881114263D+01
 Symmetry B1   KE= 1.976182705198D+00
 Symmetry B2   KE= 1.976182705198D+00
 Symmetry B3   KE= 1.976182705198D+00
  24 Symmetry operations used in ECPInt.
 ECPInt:  NShTT=     378 NPrTT=    1024 LenC2=     379 LenP2D=     994.
 LDataN:  DoStor=T MaxTD1= 7 Len=  274
 Calling FoFJK, ICntrl=      2127 FMM=F ISym2X=1 I1Cent= 0 IOpClX= 0 NMat=1 NMatS=1 NMatT=0.
 ***** Axes restored to original set *****
 -------------------------------------------------------------------
 Center     Atomic                   Forces (Hartrees/Bohr)
 Number     Number              X              Y              Z
 -------------------------------------------------------------------
      1        6           0.000000000    0.000000000    0.000000000
      2        1          -0.000000000   -0.000000000    0.013443171
      3        1           0.000000000   -0.012674344   -0.004481057
      4        1          -0.010976303    0.006337172   -0.004481057
      5        1           0.010976304    0.006337172   -0.004481057
 -------------------------------------------------------------------
 Cartesian Forces:  Max     0.013443171 RMS     0.006942024

 GradGradGradGradGradGradGradGradGradGradGradGradGradGradGradGradGradGrad
 Berny optimization.
 FormGI is forming the generalized inverse of G from B-inverse, IUseBI=4.
 Internal  Forces:  Max     0.013443171 RMS     0.007185677
 Search for a local minimum.
 Step number   1 out of a maximum of   24
 All quantities printed in internal units (Hartrees-Bohrs-Radians)
 Mixed Optimization -- RFO/linear search
 Second derivative matrix not updated -- first step.
 The second derivative matrix:
                          R1        R2        R3        R4        A1
           R1           0.37230
           R2           0.00000   0.37230
           R3           0.00000   0.00000   0.37230
           R4           0.00000   0.00000   0.00000   0.37230
           A1           0.00000   0.00000   0.00000   0.00000   0.16000
           A2           0.00000   0.00000   0.00000   0.00000   0.00000
           A3           0.00000   0.00000   0.00000   0.00000   0.00000
           A4           0.00000   0.00000   0.00000   0.00000   0.00000
           A5           0.00000   0.00000   0.00000   0.00000   0.00000
           A6           0.00000   0.00000   0.00000   0.00000   0.00000
           D1           0.00000   0.00000   0.00000   0.00000   0.00000
           D2           0.00000   0.00000   0.00000   0.00000   0.00000
           D3           0.00000   0.00000   0.00000   0.00000   0.00000
           D4           0.00000   0.00000   0.00000   0.00000   0.00000
                          A2        A3        A4        A5        A6
           A2           0.16000
           A3           0.00000   0.16000
           A4           0.00000   0.00000   0.16000
           A5           0.00000   0.00000   0.00000   0.16000
           A6           0.00000   0.00000   0.00000   0.00000   0.16000
           D1           0.00000   0.00000   0.00000   0.00000   0.00000
           D2           0.00000   0.00000   0.00000   0.00000   0.00000
           D3           0.00000   0.00000   0.00000   0.00000   0.00000
           D4           0.00000   0.00000   0.00000   0.00000   0.00000
                          D1        D2        D3        D4
           D1           0.00499
           D2           0.00000   0.00499
           D3           0.00000   0.00000   0.00499
           D4           0.00000   0.00000   0.00000   0.00499
 ITU=  0
     Eigenvalues ---    0.05269   0.05891   0.08766   0.16000   0.16000
     Eigenvalues ---    0.37230   0.37230   0.37230   0.37230
 RFO step:  Lambda=-1.93162036D-03 EMin= 5.26881007D-02
 Linear search not attempted -- first point.
 Iteration  1 RMS(Cart)=  0.01920109 RMS(Int)=  0.00000000
 Iteration  2 RMS(Cart)=  0.00000000 RMS(Int)=  0.00000000
 ClnCor:  largest displacement from symmetrization is 1.94D-14 for atom     3.
 Variable       Old X    -DE/DX   Delta X   Delta X   Delta X     New X
                                 (Linear)    (Quad)   (Total)
    R1        2.02201   0.01344   0.00000   0.03592   0.03592   2.05793
    R2        2.02201   0.01344   0.00000   0.03592   0.03592   2.05793
    R3        2.02201   0.01344   0.00000   0.03592   0.03592   2.05793
    R4        2.02201   0.01344   0.00000   0.03592   0.03592   2.05793
    A1        1.91063  -0.00000   0.00000  -0.00000  -0.00000   1.91063
    A2        1.91063   0.00000   0.00000   0.00000   0.00000   1.91063
    A3        1.91063   0.00000   0.00000   0.00000  -0.00000   1.91063
    A4        1.91063   0.00000   0.00000   0.00000   0.00000   1.91063
    A5        1.91063  -0.00000   0.00000  -0.00000   0.00000   1.91063
    A6        1.91063  -0.00000   0.00000  -0.00000  -0.00000   1.91063
    D1       -2.09440   0.00000   0.00000   0.00000   0.00000  -2.09440
    D2        2.09440  -0.00000   0.00000  -0.00000  -0.00000   2.09440
    D3       -2.09440  -0.00000   0.00000  -0.00000   0.00000  -2.09440
    D4        2.09440   0.00000   0.00000   0.00000   0.00000   2.09440
         Item               Value     Threshold  Converged?
 Maximum Force            0.013443     0.000450     NO 
 RMS     Force            0.007186     0.000300     NO 
 Maximum Displacement     0.035922     0.001800     NO 
 RMS     Displacement     0.019201     0.001200     NO 
 Predicted change in Energy=-9.707951D-04
 GradGradGradGradGradGradGradGradGradGradGradGradGradGradGradGradGradGrad

                          Input orientation:                          
 ---------------------------------------------------------------------
 Center     Atomic      Atomic             Coordinates (Angstroms)
 Number     Number       Type             X           Y           Z
 ---------------------------------------------------------------------
      1          6           0       -0.000000    0.000000    0.000000
      2          1           0       -0.000000   -0.000000    1.089009
      3          1           0       -0.000000   -1.026728   -0.363003
      4          1           0       -0.889172    0.513364   -0.363003
      5          1           0        0.889172    0.513364   -0.363003
 ---------------------------------------------------------------------
                    Distance matrix (angstroms):
                    1          2          3          4          5
     1  C    0.000000
     2  H    1.089009   0.000000
     3  H    1.089009   1.778344   0.000000
     4  H    1.089009   1.778344   1.778344   0.000000
     5  H    1.089009   1.778344   1.778344   1.778344   0.000000
 Stoichiometry    CH4
 Framework group  TD[O(C),4C3(H)]
 Deg. of freedom     1
 Full point group                 TD      NOp  24
 Largest Abelian subgroup         D2      NOp   4
 Largest concise Abelian subgroup D2      NOp   4
                         Standard orientation:                         
 ---------------------------------------------------------------------
 Center     Atomic      Atomic             Coordinates (Angstroms)
 Number     Number       Type             X           Y           Z
 ---------------------------------------------------------------------
      1          6           0        0.000000    0.000000    0.000000
      2          1           0        0.628740    0.628740    0.628740
      3          1           0       -0.628740   -0.628740    0.628740
      4          1           0       -0.628740    0.628740   -0.628740
      5          1           0        0.628740   -0.628740   -0.628740
 ---------------------------------------------------------------------
 Rotational constants (GHZ):         158.5624525         158.5624525         158.5624525
 Standard basis: def2TZVP (5D, 7F)
 There are    18 symmetry adapted cartesian basis functions of A   symmetry.
 There are    14 symmetry adapted cartesian basis functions of B1  symmetry.
 There are    14 symmetry adapted cartesian basis functions of B2  symmetry.
 There are    14 symmetry adapted cartesian basis functions of B3  symmetry.
 There are    16 symmetry adapted basis functions of A   symmetry.
 There are    13 symmetry adapted basis functions of B1  symmetry.
 There are    13 symmetry adapted basis functions of B2  symmetry.
 There are    13 symmetry adapted basis functions of B3  symmetry.
    55 basis functions,    83 primitive gaussians,    60 cartesian basis functions
     5 alpha electrons        5 beta electrons
       nuclear repulsion energy        13.4476149892 Hartrees.
 NAtoms=    5 NActive=    5 NUniq=    2 SFac= 4.00D+00 NAtFMM=   60 NAOKFM=F Big=F
 Integral buffers will be    131072 words long.
 Raffenetti 2 integral format.
 Two-electron integral symmetry is turned on.
 One-electron integrals computed using PRISM.
  24 Symmetry operations used in ECPInt.
 ECPInt:  NShTT=     378 NPrTT=    1024 LenC2=     379 LenP2D=     994.
 LDataN:  DoStor=T MaxTD1= 6 Len=  172
 NBasis=    55 RedAO= T EigKep=  1.45D-03  NBF=    16    13    13    13
 NBsUse=    55 1.00D-06 EigRej= -1.00D+00 NBFU=    16    13    13    13
 Initial guess from the checkpoint file:  "/kimariyb/g16/scratch/Gau-12799.chk"
 B after Tr=    -0.000000   -0.000000    0.000000
         Rot=    1.000000    0.000000    0.000000   -0.000000 Ang=   0.00 deg.
 Initial guess orbital symmetries:
       Occupied  (A1) (A1) (T2) (T2) (T2)
       Virtual   (A1) (T2) (T2) (T2) (T2) (T2) (T2) (A1) (T2) (T2)
                 (T2) (A1) (E) (E) (T2) (T2) (T2) (A1) (T2) (T2)
                 (T2) (T1) (T1) (T1) (A1) (T2) (T2) (T2) (T2) (T2)
                 (T2) (E) (E) (T2) (T2) (T2) (E) (E) (A1) (T1)
                 (T1) (T1) (T2) (T2) (T2) (T2) (T2) (T2) (A1) (A1)
 ExpMin= 9.52D-02 ExpMax= 1.36D+04 ExpMxC= 4.63D+02 IAcc=3 IRadAn=         5 AccDes= 0.00D+00
 Harris functional with IExCor=  402 and IRadAn=       5 diagonalized for initial guess.
 HarFok:  IExCor=  402 AccDes= 0.00D+00 IRadAn=         5 IDoV= 1 UseB2=F ITyADJ=14
 ICtDFT=  3500011 ScaDFX=  1.000000  1.000000  1.000000  1.000000
 FoFCou: FMM=F IPFlag=           0 FMFlag=      100000 FMFlg1=           0
         NFxFlg=           0 DoJE=T BraDBF=F KetDBF=T FulRan=T
         wScrn=  0.000000 ICntrl=       500 IOpCl=  0 I1Cent=   200000004 NGrid=           0
         NMat0=    1 NMatS0=      1 NMatT0=    0 NMatD0=    1 NMtDS0=    0 NMtDT0=    0
 Petite list used in FoFCou.
 Keep R1 ints in memory in symmetry-blocked form, NReq=10043311.
 Requested convergence on RMS density matrix=1.00D-08 within 128 cycles.
 Requested convergence on MAX density matrix=1.00D-06.
 Requested convergence on             energy=1.00D-06.
 No special actions if energy rises.
 Integral accuracy reduced to 1.0D-05 until final iterations.
 Initial convergence to 1.0D-05 achieved.  Increase integral accuracy.
 SCF Done:  E(RB3LYP) =  -40.5375255803     A.U. after    8 cycles
            NFock=  8  Conv=0.22D-08     -V/T= 2.0068
  24 Symmetry operations used in ECPInt.
 ECPInt:  NShTT=     378 NPrTT=    1024 LenC2=     379 LenP2D=     994.
 LDataN:  DoStor=T MaxTD1= 7 Len=  274
 Calling FoFJK, ICntrl=      2127 FMM=F ISym2X=1 I1Cent= 0 IOpClX= 0 NMat=1 NMatS=1 NMatT=0.
 ***** Axes restored to original set *****
 -------------------------------------------------------------------
 Center     Atomic                   Forces (Hartrees/Bohr)
 Number     Number              X              Y              Z
 -------------------------------------------------------------------
      1        6          -0.000000000   -0.000000000   -0.000000000
      2        1          -0.000000000   -0.000000000    0.000148640
      3        1          -0.000000000   -0.000140139   -0.000049547
      4        1          -0.000121364    0.000070070   -0.000049547
      5        1           0.000121364    0.000070070   -0.000049547
 -------------------------------------------------------------------
 Cartesian Forces:  Max     0.000148640 RMS     0.000076757

 GradGradGradGradGradGradGradGradGradGradGradGradGradGradGradGradGradGrad
 Berny optimization.
 Using GEDIIS/GDIIS optimizer.
 FormGI is forming the generalized inverse of G from B-inverse, IUseBI=4.
 Internal  Forces:  Max     0.000148640 RMS     0.000079451
 Search for a local minimum.
 Step number   2 out of a maximum of   24
 All quantities printed in internal units (Hartrees-Bohrs-Radians)
 Mixed Optimization -- En-DIIS/RFO-DIIS
 Update second derivatives using D2CorX and points    1    2
 DE= -9.60D-04 DEPred=-9.71D-04 R= 9.89D-01
 TightC=F SS=  1.41D+00  RLast= 7.18D-02 DXNew= 5.0454D-01 2.1553D-01
 Trust test= 9.89D-01 RLast= 7.18D-02 DXMaxT set to 3.00D-01
 The second derivative matrix:
                          R1        R2        R3        R4        A1
           R1           0.37175
           R2          -0.00055   0.37175
           R3          -0.00055  -0.00055   0.37175
           R4          -0.00055  -0.00055  -0.00055   0.37175
           A1          -0.00000  -0.00000  -0.00000  -0.00000   0.16000
           A2          -0.00000  -0.00000  -0.00000  -0.00000   0.00000
           A3           0.00000   0.00000   0.00000   0.00000  -0.00000
           A4           0.00000   0.00000   0.00000   0.00000  -0.00000
           A5          -0.00000  -0.00000  -0.00000  -0.00000   0.00000
           A6           0.00000   0.00000   0.00000   0.00000  -0.00000
           D1           0.00000   0.00000   0.00000   0.00000  -0.00000
           D2          -0.00000  -0.00000  -0.00000  -0.00000   0.00000
           D3           0.00000   0.00000   0.00000   0.00000  -0.00000
           D4           0.00000   0.00000   0.00000   0.00000  -0.00000
                          A2        A3        A4        A5        A6
           A2           0.16000
           A3          -0.00000   0.16000
           A4          -0.00000   0.00000   0.16000
           A5           0.00000  -0.00000  -0.00000   0.16000
           A6          -0.00000   0.00000   0.00000  -0.00000   0.16000
           D1          -0.00000   0.00000   0.00000  -0.00000   0.00000
           D2           0.00000  -0.00000  -0.00000   0.00000  -0.00000
           D3          -0.00000   0.00000   0.00000  -0.00000   0.00000
           D4          -0.00000   0.00000   0.00000  -0.00000   0.00000
                          D1        D2        D3        D4
           D1           0.00499
           D2          -0.00000   0.00499
           D3           0.00000  -0.00000   0.00499
           D4           0.00000  -0.00000   0.00000   0.00499
 ITU=  1  0
 Use linear search instead of GDIIS.
     Eigenvalues ---    0.05269   0.05891   0.08766   0.16000   0.16000
     Eigenvalues ---    0.37009   0.37230   0.37230   0.37230
 RFO step:  Lambda= 0.00000000D+00 EMin= 5.26881007D-02
 Quartic linear search produced a step of  0.01180.
 Iteration  1 RMS(Cart)=  0.00022654 RMS(Int)=  0.00000000
 Iteration  2 RMS(Cart)=  0.00000000 RMS(Int)=  0.00000000
 ClnCor:  largest displacement from symmetrization is 3.40D-14 for atom     4.
 Variable       Old X    -DE/DX   Delta X   Delta X   Delta X     New X
                                 (Linear)    (Quad)   (Total)
    R1        2.05793   0.00015   0.00042   0.00000   0.00042   2.05835
    R2        2.05793   0.00015   0.00042  -0.00000   0.00042   2.05835
    R3        2.05793   0.00015   0.00042  -0.00000   0.00042   2.05835
    R4        2.05793   0.00015   0.00042   0.00000   0.00042   2.05835
    A1        1.91063  -0.00000  -0.00000   0.00000   0.00000   1.91063
    A2        1.91063   0.00000   0.00000   0.00000   0.00000   1.91063
    A3        1.91063   0.00000   0.00000   0.00000   0.00000   1.91063
    A4        1.91063  -0.00000   0.00000  -0.00000   0.00000   1.91063
    A5        1.91063   0.00000  -0.00000   0.00000   0.00000   1.91063
    A6        1.91063  -0.00000  -0.00000  -0.00000   0.00000   1.91063
    D1       -2.09440   0.00000   0.00000   0.00000   0.00000  -2.09440
    D2        2.09440   0.00000  -0.00000   0.00000   0.00000   2.09440
    D3       -2.09440  -0.00000   0.00000  -0.00000   0.00000  -2.09440
    D4        2.09440  -0.00000   0.00000  -0.00000   0.00000   2.09440
         Item               Value     Threshold  Converged?
 Maximum Force            0.000149     0.000450     YES
 RMS     Force            0.000079     0.000300     YES
 Maximum Displacement     0.000424     0.001800     YES
 RMS     Displacement     0.000227     0.001200     YES
 Predicted change in Energy=-1.190309D-07
 Optimization completed.
    -- Stationary point found.
                           ----------------------------
                           !   Optimized Parameters   !
                           ! (Angstroms and Degrees)  !
 --------------------------                            --------------------------
 ! Name  Definition              Value          Derivative Info.                !
 --------------------------------------------------------------------------------
 ! R1    R(1,2)                  1.089          -DE/DX =    0.0001              !
 ! R2    R(1,3)                  1.089          -DE/DX =    0.0001              !
 ! R3    R(1,4)                  1.089          -DE/DX =    0.0001              !
 ! R4    R(1,5)                  1.089          -DE/DX =    0.0001              !
 ! A1    A(2,1,3)              109.4712         -DE/DX =    0.0                 !
 ! A2    A(2,1,4)              109.4712         -DE/DX =    0.0                 !
 ! A3    A(2,1,5)              109.4712         -DE/DX =    0.0                 !
 ! A4    A(3,1,4)              109.4712         -DE/DX =    0.0                 !
 ! A5    A(3,1,5)              109.4712         -DE/DX =    0.0                 !
 ! A6    A(4,1,5)              109.4712         -DE/DX =    0.0                 !
 ! D1    D(2,1,4,3)           -120.0            -DE/DX =    0.0                 !
 ! D2    D(2,1,5,3)            120.0            -DE/DX =    0.0                 !
 ! D3    D(2,1,5,4)           -120.0            -DE/DX =    0.0                 !
 ! D4    D(3,1,5,4)            120.0            -DE/DX =    0.0                 !
 --------------------------------------------------------------------------------
 GradGradGradGradGradGradGradGradGradGradGradGradGradGradGradGradGradGrad

                          Input orientation:                          
 ---------------------------------------------------------------------
 Center     Atomic      Atomic             Coordinates (Angstroms)
 Number     Number       Type             X           Y           Z
 ---------------------------------------------------------------------
      1          6           0       -0.000000    0.000000    0.000000
      2          1           0       -0.000000   -0.000000    1.089009
      3          1           0       -0.000000   -1.026728   -0.363003
      4          1           0       -0.889172    0.513364   -0.363003
      5          1           0        0.889172    0.513364   -0.363003
 ---------------------------------------------------------------------
                    Distance matrix (angstroms):
                    1          2          3          4          5
     1  C    0.000000
     2  H    1.089009   0.000000
     3  H    1.089009   1.778344   0.000000
     4  H    1.089009   1.778344   1.778344   0.000000
     5  H    1.089009   1.778344   1.778344   1.778344   0.000000
 Stoichiometry    CH4
 Framework group  TD[O(C),4C3(H)]
 Deg. of freedom     1
 Full point group                 TD      NOp  24
 Largest Abelian subgroup         D2      NOp   4
 Largest concise Abelian subgroup D2      NOp   4
                         Standard orientation:                         
 ---------------------------------------------------------------------
 Center     Atomic      Atomic             Coordinates (Angstroms)
 Number     Number       Type             X           Y           Z
 ---------------------------------------------------------------------
      1          6           0        0.000000    0.000000    0.000000
      2          1           0        0.628740    0.628740    0.628740
      3          1           0       -0.628740   -0.628740    0.628740
      4          1           0       -0.628740    0.628740   -0.628740
      5          1           0        0.628740   -0.628740   -0.628740
 ---------------------------------------------------------------------
 Rotational constants (GHZ):         158.5624525         158.5624525         158.5624525

 **********************************************************************

            Population analysis using the SCF Density.

 **********************************************************************

 Orbital symmetries:
       Occupied  (A1) (A1) (T2) (T2) (T2)
       Virtual   (A1) (T2) (T2) (T2) (T2) (T2) (T2) (A1) (T2) (T2)
                 (T2) (A1) (E) (E) (T2) (T2) (T2) (T2) (T2) (T2)
                 (A1) (T1) (T1) (T1) (A1) (T2) (T2) (T2) (T2) (T2)
                 (T2) (E) (E) (T2) (T2) (T2) (E) (E) (A1) (T1)
                 (T1) (T1) (T2) (T2) (T2) (T2) (T2) (T2) (A1) (A1)
 The electronic state is 1-A1.
 Alpha  occ. eigenvalues --  -10.15379  -0.69682  -0.39564  -0.39564  -0.39564
 Alpha virt. eigenvalues --    0.04793   0.12315   0.12315   0.12315   0.19633
 Alpha virt. eigenvalues --    0.19633   0.19633   0.39041   0.47061   0.47061
 Alpha virt. eigenvalues --    0.47061   0.52563   0.59414   0.59414   0.92826
 Alpha virt. eigenvalues --    0.92826   0.92826   1.47672   1.47672   1.47672
 Alpha virt. eigenvalues --    1.48076   1.53137   1.53137   1.53137   1.95045
 Alpha virt. eigenvalues --    1.98786   1.98786   1.98786   2.23594   2.23594
 Alpha virt. eigenvalues --    2.23594   2.40523   2.40523   2.57311   2.57311
 Alpha virt. eigenvalues --    2.57311   2.97174   2.97174   2.99904   3.36089
 Alpha virt. eigenvalues --    3.36089   3.36089   3.49548   3.49548   3.49548
 Alpha virt. eigenvalues --    4.19607   4.19607   4.19607   4.46707  22.17343
          Condensed to atoms (all electrons):
               1          2          3          4          5
     1  C    4.878408   0.397817   0.397817   0.397817   0.397817
     2  H    0.397817   0.559412  -0.024883  -0.024883  -0.024883
     3  H    0.397817  -0.024883   0.559412  -0.024883  -0.024883
     4  H    0.397817  -0.024883  -0.024883   0.559412  -0.024883
     5  H    0.397817  -0.024883  -0.024883  -0.024883   0.559412
 Mulliken charges:
               1
     1  C   -0.469677
     2  H    0.117419
     3  H    0.117419
     4  H    0.117419
     5  H    0.117419
 Sum of Mulliken charges =  -0.00000
 Mulliken charges with hydrogens summed into heavy atoms:
               1
     1  C   -0.000000
 Electronic spatial extent (au):  <R**2>=             35.8997
 Charge=             -0.0000 electrons
 Dipole moment (field-independent basis, Debye):
    X=             -0.0000    Y=              0.0000    Z=              0.0000  Tot=              0.0000
 Quadrupole moment (field-independent basis, Debye-Ang):
   XX=             -8.5004   YY=             -8.5004   ZZ=             -8.5004
   XY=              0.0000   XZ=             -0.0000   YZ=             -0.0000
 Traceless Quadrupole moment (field-independent basis, Debye-Ang):
   XX=              0.0000   YY=              0.0000   ZZ=             -0.0000
   XY=              0.0000   XZ=             -0.0000   YZ=             -0.0000
 Octapole moment (field-independent basis, Debye-Ang**2):
  XXX=             -0.0000  YYY=              0.0000  ZZZ=              0.0000  XYY=             -0.0000
  XXY=             -0.0000  XXZ=              0.0000  XZZ=             -0.0000  YZZ=              0.0000
  YYZ=              0.0000  XYZ=              0.7123
 Hexadecapole moment (field-independent basis, Debye-Ang**3):
 XXXX=            -17.3288 YYYY=            -17.3288 ZZZZ=            -17.3288 XXXY=             -0.0000
 XXXZ=             -0.0000 YYYX=             -0.0000 YYYZ=             -0.0000 ZZZX=              0.0000
 ZZZY=             -0.0000 XXYY=             -5.2801 XXZZ=             -5.2801 YYZZ=             -5.2801
 XXYZ=             -0.0000 YYXZ=             -0.0000 ZZXY=              0.0000
 N-N= 1.344761498915D+01 E-N=-1.201323699574D+02  KE= 4.026434831728D+01
 Symmetry A    KE= 3.442232341277D+01
 Symmetry B1   KE= 1.947341634835D+00
 Symmetry B2   KE= 1.947341634835D+00
 Symmetry B3   KE= 1.947341634835D+00
 Unable to Open any file for archive entry.
 1\1\GINC-LOCALHOST\FOpt\RB3LYP\def2TZVP\C1H4\KIMARIYB\28-Jul-2023\0\\#
  opt freq B3LYP/def2TZVP\\Title Card Required\\0,1\C,0.,0.000000001,0.
 000000001\H,-0.0000000059,-0.0000000007,1.0890090408\H,0.,-1.026727567
 6,-0.3630030138\H,-0.8891721547,0.5133637878,-0.3630030163\H,0.8891721
 606,0.5133637844,-0.3630030067\\Version=ES64L-G16RevC.01\State=1-A1\HF
 =-40.5375256\RMSD=2.223e-09\RMSF=7.676e-05\Dipole=0.,0.,0.\Quadrupole=
 0.,0.,0.,0.,0.,0.\PG=TD [O(C1),4C3(H1)]\\@
 The archive entry for this job was punched.


 IF YOU WISH TO UNDERSTAND THE FRAGRANCE OF THE ROSE, 
 OR THE TENACITY OF THE OAK; 
 IF YOU ARE NOT SATISFIED UNTIL YOU KNOW THE SECRET PATHS 
 BY WHICH THE SUNSHINE AND THE AIR ACHIEVE THESE WONDERS; 
 IF YOU WISH TO SEE THE PATTERN WHICH UNDERLIES ONE LARGE FIELD OF 
 HUMAN EXPERIENCE AND HUMAN MEASUREMENT, THEN TAKE UP CHEMISTRY.

                                         -- C. A. COULSON, 1973.
 Job cpu time:       0 days  0 hours  0 minutes 22.6 seconds.
 Elapsed time:       0 days  0 hours  0 minutes  2.3 seconds.
 File lengths (MBytes):  RWF=      6 Int=      0 D2E=      0 Chk=      1 Scr=      1
 Normal termination of Gaussian 16 at Fri Jul 28 16:26:56 2023.
 Link1:  Proceeding to internal job step number  2.
 --------------------------------------------------------------------
 #N Geom=AllCheck Guess=TCheck SCRF=Check GenChk RB3LYP/def2TZVP Freq
 --------------------------------------------------------------------
 1/10=4,29=7,30=1,38=1,40=1/1,3;
 2/12=2,40=1/2;
 3/5=44,7=101,11=2,14=-4,25=1,30=1,70=2,71=2,74=-5,116=1,140=1/1,2,3;
 4/5=101/1;
 5/5=2,38=6,98=1/2;
 8/6=4,10=90,11=11/1;
 11/6=1,8=1,9=11,15=111,16=1/1,2,10;
 10/6=1/2;
 6/7=2,8=2,9=2,10=2,28=1/1;
 7/8=1,10=1,25=1/1,2,3,16;
 1/10=4,30=1/3;
 99//99;
 Structure from the checkpoint file:  "/kimariyb/g16/scratch/Gau-12799.chk"
 -------------------
 Title Card Required
 -------------------
 Charge =  0 Multiplicity = 1
 Redundant internal coordinates found in file.  (old form).
 C,0,0.,0.000000001,0.000000001
 H,0,-0.0000000059,-0.0000000007,1.0890090408
 H,0,0.,-1.0267275676,-0.3630030138
 H,0,-0.8891721547,0.5133637878,-0.3630030163
 H,0,0.8891721606,0.5133637844,-0.3630030067
 Recover connectivity data from disk.

 GradGradGradGradGradGradGradGradGradGradGradGradGradGradGradGradGradGrad
 Berny optimization.
 Initialization pass.
                           ----------------------------
                           !    Initial Parameters    !
                           ! (Angstroms and Degrees)  !
 --------------------------                            --------------------------
 ! Name  Definition              Value          Derivative Info.                !
 --------------------------------------------------------------------------------
 ! R1    R(1,2)                  1.089          calculate D2E/DX2 analytically  !
 ! R2    R(1,3)                  1.089          calculate D2E/DX2 analytically  !
 ! R3    R(1,4)                  1.089          calculate D2E/DX2 analytically  !
 ! R4    R(1,5)                  1.089          calculate D2E/DX2 analytically  !
 ! A1    A(2,1,3)              109.4712         calculate D2E/DX2 analytically  !
 ! A2    A(2,1,4)              109.4712         calculate D2E/DX2 analytically  !
 ! A3    A(2,1,5)              109.4712         calculate D2E/DX2 analytically  !
 ! A4    A(3,1,4)              109.4712         calculate D2E/DX2 analytically  !
 ! A5    A(3,1,5)              109.4712         calculate D2E/DX2 analytically  !
 ! A6    A(4,1,5)              109.4712         calculate D2E/DX2 analytically  !
 ! D1    D(2,1,4,3)           -120.0            calculate D2E/DX2 analytically  !
 ! D2    D(2,1,5,3)            120.0            calculate D2E/DX2 analytically  !
 ! D3    D(2,1,5,4)           -120.0            calculate D2E/DX2 analytically  !
 ! D4    D(3,1,5,4)            120.0            calculate D2E/DX2 analytically  !
 --------------------------------------------------------------------------------
 Trust Radius=3.00D-01 FncErr=1.00D-07 GrdErr=1.00D-07 EigMax=2.50D+02 EigMin=1.00D-04
 Number of steps in this run=      2 maximum allowed number of steps=      2.
 GradGradGradGradGradGradGradGradGradGradGradGradGradGradGradGradGradGrad

                          Input orientation:                          
 ---------------------------------------------------------------------
 Center     Atomic      Atomic             Coordinates (Angstroms)
 Number     Number       Type             X           Y           Z
 ---------------------------------------------------------------------
      1          6           0        0.000000    0.000000    0.000000
      2          1           0       -0.000000   -0.000000    1.089009
      3          1           0       -0.000000   -1.026728   -0.363003
      4          1           0       -0.889172    0.513364   -0.363003
      5          1           0        0.889172    0.513364   -0.363003
 ---------------------------------------------------------------------
                    Distance matrix (angstroms):
                    1          2          3          4          5
     1  C    0.000000
     2  H    1.089009   0.000000
     3  H    1.089009   1.778344   0.000000
     4  H    1.089009   1.778344   1.778344   0.000000
     5  H    1.089009   1.778344   1.778344   1.778344   0.000000
 Stoichiometry    CH4
 Framework group  TD[O(C),4C3(H)]
 Deg. of freedom     1
 Full point group                 TD      NOp  24
 Largest Abelian subgroup         D2      NOp   4
 Largest concise Abelian subgroup D2      NOp   4
                         Standard orientation:                         
 ---------------------------------------------------------------------
 Center     Atomic      Atomic             Coordinates (Angstroms)
 Number     Number       Type             X           Y           Z
 ---------------------------------------------------------------------
      1          6           0        0.000000    0.000000    0.000000
      2          1           0        0.628740    0.628740    0.628740
      3          1           0       -0.628740   -0.628740    0.628740
      4          1           0       -0.628740    0.628740   -0.628740
      5          1           0        0.628740   -0.628740   -0.628740
 ---------------------------------------------------------------------
 Rotational constants (GHZ):         158.5624525         158.5624525         158.5624525
 Standard basis: def2TZVP (5D, 7F)
 There are    18 symmetry adapted cartesian basis functions of A   symmetry.
 There are    14 symmetry adapted cartesian basis functions of B1  symmetry.
 There are    14 symmetry adapted cartesian basis functions of B2  symmetry.
 There are    14 symmetry adapted cartesian basis functions of B3  symmetry.
 There are    16 symmetry adapted basis functions of A   symmetry.
 There are    13 symmetry adapted basis functions of B1  symmetry.
 There are    13 symmetry adapted basis functions of B2  symmetry.
 There are    13 symmetry adapted basis functions of B3  symmetry.
    55 basis functions,    83 primitive gaussians,    60 cartesian basis functions
     5 alpha electrons        5 beta electrons
       nuclear repulsion energy        13.4476149892 Hartrees.
 NAtoms=    5 NActive=    5 NUniq=    2 SFac= 4.00D+00 NAtFMM=   60 NAOKFM=F Big=F
 Integral buffers will be    131072 words long.
 Raffenetti 2 integral format.
 Two-electron integral symmetry is turned on.
 One-electron integrals computed using PRISM.
  24 Symmetry operations used in ECPInt.
 ECPInt:  NShTT=     378 NPrTT=    1024 LenC2=     379 LenP2D=     994.
 LDataN:  DoStor=T MaxTD1= 6 Len=  172
 NBasis=    55 RedAO= T EigKep=  1.45D-03  NBF=    16    13    13    13
 NBsUse=    55 1.00D-06 EigRej= -1.00D+00 NBFU=    16    13    13    13
 Initial guess from the checkpoint file:  "/kimariyb/g16/scratch/Gau-12799.chk"
 B after Tr=     0.000000    0.000000    0.000000
         Rot=    1.000000    0.000000    0.000000    0.000000 Ang=   0.00 deg.
 Initial guess orbital symmetries:
       Occupied  (A1) (A1) (T2) (T2) (T2)
       Virtual   (A1) (T2) (T2) (T2) (T2) (T2) (T2) (A1) (T2) (T2)
                 (T2) (A1) (E) (E) (T2) (T2) (T2) (T2) (T2) (T2)
                 (A1) (T1) (T1) (T1) (A1) (T2) (T2) (T2) (T2) (T2)
                 (T2) (E) (E) (T2) (T2) (T2) (E) (E) (A1) (T1)
                 (T1) (T1) (T2) (T2) (T2) (T2) (T2) (T2) (A1) (A1)
 Keep R1 ints in memory in symmetry-blocked form, NReq=10043311.
 Requested convergence on RMS density matrix=1.00D-08 within 128 cycles.
 Requested convergence on MAX density matrix=1.00D-06.
 Requested convergence on             energy=1.00D-06.
 No special actions if energy rises.
 SCF Done:  E(RB3LYP) =  -40.5375255803     A.U. after    1 cycles
            NFock=  1  Conv=0.24D-09     -V/T= 2.0068
 DoSCS=F DFT=T ScalE2(SS,OS)=  1.000000  1.000000
 Range of M.O.s used for correlation:     1    55
 NBasis=    55 NAE=     5 NBE=     5 NFC=     0 NFV=     0
 NROrb=     55 NOA=     5 NOB=     5 NVA=    50 NVB=    50

 **** Warning!!: The largest alpha MO coefficient is  0.15202152D+02

  24 Symmetry operations used in ECPInt.
 ECPInt:  NShTT=     378 NPrTT=    1024 LenC2=     379 LenP2D=     994.
 LDataN:  DoStor=T MaxTD1= 7 Len=  274
 Symmetrizing basis deriv contribution to polar:
 IMax=3 JMax=2 DiffMx= 0.00D+00
 G2DrvN: will do     6 centers at a time, making    1 passes.
 Calling FoFCou, ICntrl=  3107 FMM=F I1Cent=   0 AccDes= 0.00D+00.
 End of G2Drv F.D. properties file   721 does not exist.
 End of G2Drv F.D. properties file   722 does not exist.
 End of G2Drv F.D. properties file   788 does not exist.
          IDoAtm=11111
          Differentiating once with respect to electric field.
                with respect to dipole field.
          Differentiating once with respect to nuclear coordinates.
 Keep R1 ints in memory in symmetry-blocked form, NReq=10013027.
          There are     9 degrees of freedom in the 1st order CPHF.  IDoFFX=4 NUNeed=     9.
      9 vectors produced by pass  0 Test12= 2.78D-15 1.11D-08 XBig12= 8.06D+00 1.42D+00.
 AX will form     9 AO Fock derivatives at one time.
      9 vectors produced by pass  1 Test12= 2.78D-15 1.11D-08 XBig12= 2.46D-01 2.09D-01.
      9 vectors produced by pass  2 Test12= 2.78D-15 1.11D-08 XBig12= 1.48D-03 1.83D-02.
      9 vectors produced by pass  3 Test12= 2.78D-15 1.11D-08 XBig12= 2.69D-06 6.01D-04.
      9 vectors produced by pass  4 Test12= 2.78D-15 1.11D-08 XBig12= 1.39D-09 1.41D-05.
      4 vectors produced by pass  5 Test12= 2.78D-15 1.11D-08 XBig12= 7.17D-13 3.00D-07.
 InvSVY:  IOpt=1 It=  1 EMax= 4.44D-16
 Solved reduced A of dimension    49 with     9 vectors.
 Isotropic polarizability for W=    0.000000       15.17 Bohr**3.
 End of Minotr F.D. properties file   721 does not exist.
 End of Minotr F.D. properties file   722 does not exist.
 End of Minotr F.D. properties file   788 does not exist.

 **********************************************************************

            Population analysis using the SCF Density.

 **********************************************************************

 Orbital symmetries:
       Occupied  (A1) (A1) (T2) (T2) (T2)
       Virtual   (A1) (T2) (T2) (T2) (T2) (T2) (T2) (A1) (T2) (T2)
                 (T2) (A1) (E) (E) (T2) (T2) (T2) (T2) (T2) (T2)
                 (A1) (T1) (T1) (T1) (A1) (T2) (T2) (T2) (T2) (T2)
                 (T2) (E) (E) (T2) (T2) (T2) (E) (E) (A1) (T1)
                 (T1) (T1) (T2) (T2) (T2) (T2) (T2) (T2) (A1) (A1)
 The electronic state is 1-A1.
 Alpha  occ. eigenvalues --  -10.15379  -0.69682  -0.39564  -0.39564  -0.39564
 Alpha virt. eigenvalues --    0.04793   0.12315   0.12315   0.12315   0.19633
 Alpha virt. eigenvalues --    0.19633   0.19633   0.39041   0.47061   0.47061
 Alpha virt. eigenvalues --    0.47061   0.52563   0.59414   0.59414   0.92826
 Alpha virt. eigenvalues --    0.92826   0.92826   1.47672   1.47672   1.47672
 Alpha virt. eigenvalues --    1.48076   1.53137   1.53137   1.53137   1.95045
 Alpha virt. eigenvalues --    1.98786   1.98786   1.98786   2.23594   2.23594
 Alpha virt. eigenvalues --    2.23594   2.40523   2.40523   2.57311   2.57311
 Alpha virt. eigenvalues --    2.57311   2.97174   2.97174   2.99904   3.36089
 Alpha virt. eigenvalues --    3.36089   3.36089   3.49548   3.49548   3.49548
 Alpha virt. eigenvalues --    4.19607   4.19607   4.19607   4.46707  22.17343
          Condensed to atoms (all electrons):
               1          2          3          4          5
     1  C    4.878408   0.397817   0.397817   0.397817   0.397817
     2  H    0.397817   0.559412  -0.024883  -0.024883  -0.024883
     3  H    0.397817  -0.024883   0.559412  -0.024883  -0.024883
     4  H    0.397817  -0.024883  -0.024883   0.559412  -0.024883
     5  H    0.397817  -0.024883  -0.024883  -0.024883   0.559412
 Mulliken charges:
               1
     1  C   -0.469677
     2  H    0.117419
     3  H    0.117419
     4  H    0.117419
     5  H    0.117419
 Sum of Mulliken charges =  -0.00000
 Mulliken charges with hydrogens summed into heavy atoms:
               1
     1  C   -0.000000
 APT charges:
               1
     1  C   -0.003809
     2  H    0.000952
     3  H    0.000952
     4  H    0.000952
     5  H    0.000952
 Sum of APT charges =  -0.00000
 APT charges with hydrogens summed into heavy atoms:
               1
     1  C   -0.000000
 Electronic spatial extent (au):  <R**2>=             35.8997
 Charge=             -0.0000 electrons
 Dipole moment (field-independent basis, Debye):
    X=             -0.0000    Y=             -0.0000    Z=              0.0000  Tot=              0.0000
 Quadrupole moment (field-independent basis, Debye-Ang):
   XX=             -8.5004   YY=             -8.5004   ZZ=             -8.5004
   XY=              0.0000   XZ=              0.0000   YZ=              0.0000
 Traceless Quadrupole moment (field-independent basis, Debye-Ang):
   XX=             -0.0000   YY=             -0.0000   ZZ=              0.0000
   XY=              0.0000   XZ=              0.0000   YZ=              0.0000
 Octapole moment (field-independent basis, Debye-Ang**2):
  XXX=              0.0000  YYY=             -0.0000  ZZZ=              0.0000  XYY=             -0.0000
  XXY=             -0.0000  XXZ=              0.0000  XZZ=              0.0000  YZZ=             -0.0000
  YYZ=              0.0000  XYZ=              0.7123
 Hexadecapole moment (field-independent basis, Debye-Ang**3):
 XXXX=            -17.3288 YYYY=            -17.3288 ZZZZ=            -17.3288 XXXY=             -0.0000
 XXXZ=              0.0000 YYYX=             -0.0000 YYYZ=             -0.0000 ZZZX=              0.0000
 ZZZY=              0.0000 XXYY=             -5.2801 XXZZ=             -5.2801 YYZZ=             -5.2801
 XXYZ=             -0.0000 YYXZ=             -0.0000 ZZXY=             -0.0000
 N-N= 1.344761498915D+01 E-N=-1.201323698421D+02  KE= 4.026434827365D+01
 Symmetry A    KE= 3.442232340648D+01
 Symmetry B1   KE= 1.947341622391D+00
 Symmetry B2   KE= 1.947341622391D+00
 Symmetry B3   KE= 1.947341622391D+00
  Exact polarizability:      15.170      -0.000      15.170      -0.000      -0.000      15.170
 Approx polarizability:      18.807       0.000      18.807      -0.000       0.000      18.807
  24 Symmetry operations used in ECPInt.
 ECPInt:  NShTT=     378 NPrTT=    1024 LenC2=     379 LenP2D=     994.
 LDataN:  DoStor=T MaxTD1= 8 Len=  415
 Calling FoFJK, ICntrl=    100127 FMM=F ISym2X=1 I1Cent= 0 IOpClX= 0 NMat=1 NMatS=1 NMatT=0.
 Full mass-weighted force constant matrix:
 Low frequencies ---  -42.1248  -42.1248  -42.1248   -0.0010   -0.0009   -0.0008
 Low frequencies --- 1340.4616 1340.4616 1340.4616
 Diagonal vibrational polarizability:
        0.2826188       0.2826188       0.2826188
 Harmonic frequencies (cm**-1), IR intensities (KM/Mole), Raman scattering
 activities (A**4/AMU), depolarization ratios for plane and unpolarized
 incident light, reduced masses (AMU), force constants (mDyne/A),
 and normal coordinates:
                      1                      2                      3
                     T2                     T2                     T2
 Frequencies --   1340.4616              1340.4616              1340.4616
 Red. masses --      1.1798                 1.1798                 1.1798
 Frc consts  --      1.2491                 1.2491                 1.2491
 IR Inten    --     14.5059                14.5059                14.5059
  Atom  AN      X      Y      Z        X      Y      Z        X      Y      Z
     1   6    -0.06  -0.08  -0.08     0.00   0.09  -0.09    -0.11   0.04   0.04
     2   1    -0.12  -0.02  -0.02    -0.00  -0.43   0.43     0.48  -0.25  -0.25
     3   1     0.17   0.28   0.49     0.33  -0.10   0.10     0.33  -0.40   0.01
     4   1     0.17   0.49   0.28    -0.33  -0.10   0.10     0.33   0.01  -0.40
     5   1     0.46   0.19   0.19    -0.00  -0.43   0.43     0.18   0.16   0.16
                      4                      5                      6
                      E                      E                     A1
 Frequencies --   1556.3264              1556.3264              3033.9317
 Red. masses --      1.0078                 1.0078                 1.0078
 Frc consts  --      1.4383                 1.4383                 5.4657
 IR Inten    --      0.0000                 0.0000                 0.0000
  Atom  AN      X      Y      Z        X      Y      Z        X      Y      Z
     1   6     0.00  -0.00  -0.00    -0.00  -0.00   0.00     0.00   0.00   0.00
     2   1     0.41  -0.21  -0.20    -0.00  -0.35   0.35     0.29   0.29   0.29
     3   1    -0.41   0.21  -0.20     0.00   0.35   0.35    -0.29  -0.29   0.29
     4   1    -0.41  -0.21   0.20     0.00  -0.35  -0.35    -0.29   0.29  -0.29
     5   1     0.41   0.21   0.20    -0.00   0.35  -0.35     0.29  -0.29  -0.29
                      7                      8                      9
                     T2                     T2                     T2
 Frequencies --   3136.6815              3136.6815              3136.6815
 Red. masses --      1.1009                 1.1009                 1.1009
 Frc consts  --      6.3818                 6.3818                 6.3818
 IR Inten    --     23.8974                23.8974                23.8974
  Atom  AN      X      Y      Z        X      Y      Z        X      Y      Z
     1   6    -0.00  -0.06   0.07    -0.02   0.06   0.06    -0.09  -0.01  -0.01
     2   1    -0.00  -0.02   0.01    -0.35  -0.34  -0.34     0.35   0.37   0.37
     3   1     0.42   0.40  -0.40     0.05   0.07  -0.04     0.27   0.29  -0.29
     4   1    -0.42   0.40  -0.40     0.06  -0.05   0.07     0.27  -0.29   0.29
     5   1     0.00  -0.02   0.01     0.46  -0.45  -0.45     0.19  -0.21  -0.21

 -------------------
 - Thermochemistry -
 -------------------
 Temperature   298.150 Kelvin.  Pressure   1.00000 Atm.
 Atom     1 has atomic number  6 and mass  12.00000
 Atom     2 has atomic number  1 and mass   1.00783
 Atom     3 has atomic number  1 and mass   1.00783
 Atom     4 has atomic number  1 and mass   1.00783
 Atom     5 has atomic number  1 and mass   1.00783
 Molecular mass:    16.03130 amu.
 Principal axes and moments of inertia in atomic units:
                           1         2         3
     Eigenvalues --    11.38190  11.38190  11.38190
           X            0.32901   0.00000   0.94432
           Y            0.94432   0.00000  -0.32901
           Z           -0.00000   1.00000  -0.00000
 This molecule is a spherical top.
 Rotational symmetry number 12.
 Rotational temperatures (Kelvin)      7.60980     7.60980     7.60980
 Rotational constants (GHZ):         158.56245   158.56245   158.56245
 Zero-point vibrational energy     117102.5 (Joules/Mol)
                                   27.98818 (Kcal/Mol)
 Vibrational temperatures:   1928.63  1928.63  1928.63  2239.21  2239.21
          (Kelvin)           4365.15  4512.99  4512.99  4512.99
 
 Zero-point correction=                           0.044602 (Hartree/Particle)
 Thermal correction to Energy=                    0.047471
 Thermal correction to Enthalpy=                  0.048415
 Thermal correction to Gibbs Free Energy=         0.027289
 Sum of electronic and zero-point Energies=            -40.492924
 Sum of electronic and thermal Energies=               -40.490055
 Sum of electronic and thermal Enthalpies=             -40.489111
 Sum of electronic and thermal Free Energies=          -40.510237
 
                     E (Thermal)             CV                S
                      KCal/Mol        Cal/Mol-Kelvin    Cal/Mol-Kelvin
 Total                   29.788              6.473             44.463
 Electronic               0.000              0.000              0.000
 Translational            0.889              2.981             34.261
 Rotational               0.889              2.981             10.114
 Vibrational             28.011              0.512              0.088
                       Q            Log10(Q)             Ln(Q)
 Total Bot       0.280489D-12        -12.552084        -28.902242
 Total V=0       0.919162D+08          7.963392         18.336388
 Vib (Bot)       0.306918D-20        -20.512978        -47.232876
 Vib (V=0)       0.100577D+01          0.002499          0.005754
 Electronic      0.100000D+01          0.000000          0.000000
 Translational   0.252294D+07          6.401907         14.740936
 Rotational      0.362232D+02          1.558986          3.589698
 ***** Axes restored to original set *****
 -------------------------------------------------------------------
 Center     Atomic                   Forces (Hartrees/Bohr)
 Number     Number              X              Y              Z
 -------------------------------------------------------------------
      1        6           0.000000000   -0.000000000    0.000000000
      2        1          -0.000000000   -0.000000000    0.000148639
      3        1          -0.000000000   -0.000140138   -0.000049546
      4        1          -0.000121363    0.000070069   -0.000049546
      5        1           0.000121363    0.000070069   -0.000049546
 -------------------------------------------------------------------
 Cartesian Forces:  Max     0.000148639 RMS     0.000076757
 FormGI is forming the generalized inverse of G from B-inverse, IUseBI=4.

 GradGradGradGradGradGradGradGradGradGradGradGradGradGradGradGradGradGrad
 Berny optimization.
 Internal  Forces:  Max     0.000148639 RMS     0.000079451
 Search for a local minimum.
 Step number   1 out of a maximum of    2
 All quantities printed in internal units (Hartrees-Bohrs-Radians)
 Second derivative matrix not updated -- analytic derivatives used.
 The second derivative matrix:
                          R1        R2        R3        R4        A1
           R1           0.34344
           R2           0.00254   0.34344
           R3           0.00254   0.00254   0.34344
           R4           0.00254   0.00254   0.00254   0.34344
           A1           0.00196   0.00196  -0.00123  -0.00269   0.01936
           A2           0.00307  -0.00079   0.00342  -0.00570  -0.00858
           A3           0.00600  -0.00482  -0.00533   0.00415  -0.01283
           A4          -0.00079   0.00307   0.00342  -0.00570  -0.00858
           A5          -0.00482   0.00600  -0.00533   0.00415  -0.01283
           A6          -0.00543  -0.00543   0.00506   0.00579   0.02344
           D1          -0.00380  -0.00380  -0.00268   0.01027  -0.01321
           D2           0.00313   0.00313  -0.00804   0.00179   0.00801
           D3          -0.00412   0.00724  -0.00402   0.00089   0.00400
           D4          -0.00724   0.00412   0.00402  -0.00089  -0.00400
                          A2        A3        A4        A5        A6
           A2           0.03652
           A3          -0.02218   0.07135
           A4          -0.00200   0.02430   0.03652
           A5           0.02430  -0.03457  -0.02218   0.07135
           A6          -0.02805  -0.02607  -0.02805  -0.02607   0.08480
           D1          -0.01064   0.01442  -0.01064   0.01442   0.00565
           D2          -0.00921   0.00681  -0.00921   0.00681  -0.00322
           D3          -0.01396  -0.00056   0.00475   0.00737  -0.00161
           D4          -0.00475  -0.00737   0.01396   0.00056   0.00161
                          D1        D2        D3        D4
           D1           0.02921
           D2           0.00147   0.01815
           D3           0.00074   0.00908   0.01843
           D4          -0.00074  -0.00908   0.00935   0.01843
 ITU=  0
     Eigenvalues ---    0.03718   0.04189   0.06366   0.12887   0.12937
     Eigenvalues ---    0.34183   0.34185   0.34213   0.35107
 Angle between quadratic step and forces=   0.00 degrees.
 Linear search not attempted -- first point.
 Iteration  1 RMS(Cart)=  0.00022631 RMS(Int)=  0.00000000
 Iteration  2 RMS(Cart)=  0.00000000 RMS(Int)=  0.00000000
 ClnCor:  largest displacement from symmetrization is 2.96D-12 for atom     4.
 Variable       Old X    -DE/DX   Delta X   Delta X   Delta X     New X
                                 (Linear)    (Quad)   (Total)
    R1        2.05793   0.00015   0.00000   0.00042   0.00042   2.05835
    R2        2.05793   0.00015   0.00000   0.00042   0.00042   2.05835
    R3        2.05793   0.00015   0.00000   0.00042   0.00042   2.05835
    R4        2.05793   0.00015   0.00000   0.00042   0.00042   2.05835
    A1        1.91063  -0.00000   0.00000   0.00000   0.00000   1.91063
    A2        1.91063   0.00000   0.00000   0.00000   0.00000   1.91063
    A3        1.91063   0.00000   0.00000  -0.00000   0.00000   1.91063
    A4        1.91063   0.00000   0.00000  -0.00000   0.00000   1.91063
    A5        1.91063  -0.00000   0.00000   0.00000   0.00000   1.91063
    A6        1.91063  -0.00000   0.00000   0.00000  -0.00000   1.91063
    D1       -2.09440   0.00000   0.00000  -0.00000   0.00000  -2.09440
    D2        2.09440  -0.00000   0.00000   0.00000   0.00000   2.09440
    D3       -2.09440   0.00000   0.00000  -0.00000   0.00000  -2.09440
    D4        2.09440   0.00000   0.00000  -0.00000  -0.00000   2.09440
         Item               Value     Threshold  Converged?
 Maximum Force            0.000149     0.000450     YES
 RMS     Force            0.000079     0.000300     YES
 Maximum Displacement     0.000423     0.001800     YES
 RMS     Displacement     0.000226     0.001200     YES
 Predicted change in Energy=-1.258651D-07
 Optimization completed.
    -- Stationary point found.
                           ----------------------------
                           !   Optimized Parameters   !
                           ! (Angstroms and Degrees)  !
 --------------------------                            --------------------------
 ! Name  Definition              Value          Derivative Info.                !
 --------------------------------------------------------------------------------
 ! R1    R(1,2)                  1.089          -DE/DX =    0.0001              !
 ! R2    R(1,3)                  1.089          -DE/DX =    0.0001              !
 ! R3    R(1,4)                  1.089          -DE/DX =    0.0001              !
 ! R4    R(1,5)                  1.089          -DE/DX =    0.0001              !
 ! A1    A(2,1,3)              109.4712         -DE/DX =    0.0                 !
 ! A2    A(2,1,4)              109.4712         -DE/DX =    0.0                 !
 ! A3    A(2,1,5)              109.4712         -DE/DX =    0.0                 !
 ! A4    A(3,1,4)              109.4712         -DE/DX =    0.0                 !
 ! A5    A(3,1,5)              109.4712         -DE/DX =    0.0                 !
 ! A6    A(4,1,5)              109.4712         -DE/DX =    0.0                 !
 ! D1    D(2,1,4,3)           -120.0            -DE/DX =    0.0                 !
 ! D2    D(2,1,5,3)            120.0            -DE/DX =    0.0                 !
 ! D3    D(2,1,5,4)           -120.0            -DE/DX =    0.0                 !
 ! D4    D(3,1,5,4)            120.0            -DE/DX =    0.0                 !
 --------------------------------------------------------------------------------
 GradGradGradGradGradGradGradGradGradGradGradGradGradGradGradGradGradGrad

 Dipole is zero, so no output in dipole orientation.

 ----------------------------------------------------------------------

 Electric dipole moment (input orientation):
 (Debye = 10**-18 statcoulomb cm , SI units = C m)
                  (au)            (Debye)         (10**-30 SI)
   Tot        0.000000D+00      0.000000D+00      0.000000D+00
   x          0.000000D+00      0.000000D+00      0.000000D+00
   y          0.000000D+00      0.000000D+00      0.000000D+00
   z          0.000000D+00      0.000000D+00      0.000000D+00

 Dipole polarizability, Alpha (input orientation).
 (esu units = cm**3 , SI units = C**2 m**2 J**-1)
 Alpha(0;0):
               (au)            (10**-24 esu)      (10**-40 SI)
   iso        0.151702D+02      0.224799D+01      0.250123D+01
   aniso      0.000000D+00      0.000000D+00      0.000000D+00
   xx         0.151702D+02      0.224799D+01      0.250123D+01
   yx         0.000000D+00      0.000000D+00      0.000000D+00
   yy         0.151702D+02      0.224799D+01      0.250123D+01
   zx         0.000000D+00      0.000000D+00      0.000000D+00
   zy         0.000000D+00      0.000000D+00      0.000000D+00
   zz         0.151702D+02      0.224799D+01      0.250123D+01

 ----------------------------------------------------------------------
 Unable to Open any file for archive entry.
 1\1\GINC-LOCALHOST\Freq\RB3LYP\def2TZVP\C1H4\KIMARIYB\28-Jul-2023\0\\#
 N Geom=AllCheck Guess=TCheck SCRF=Check GenChk RB3LYP/def2TZVP Freq\\T
 itle Card Required\\0,1\C,0.,0.000000001,0.000000001\H,-0.0000000059,-
 0.0000000007,1.0890090408\H,0.,-1.0267275676,-0.3630030138\H,-0.889172
 1547,0.5133637878,-0.3630030163\H,0.8891721606,0.5133637844,-0.3630030
 067\\Version=ES64L-G16RevC.01\State=1-A1\HF=-40.5375256\RMSD=2.436e-10
 \RMSF=7.676e-05\ZeroPoint=0.044602\Thermal=0.0474708\ETot=-40.4900548\
 HTot=-40.4891106\GTot=-40.5102365\Dipole=0.,0.,0.\DipoleDeriv=-0.00380
 87,0.,0.,0.,-0.0038087,0.,0.,0.,-0.0038087,0.0713939,0.,0.,0.,0.071393
 9,0.,0.,0.,-0.1399312,0.0713939,0.,0.,0.,-0.1164506,-0.066413,0.,-0.06
 6413,0.0479133,-0.0694895,0.081339,-0.0575154,0.081339,0.0244327,0.033
 2065,-0.0575154,0.0332065,0.0479133,-0.0694895,-0.081339,0.0575154,-0.
 081339,0.0244327,0.0332065,0.0575154,0.0332065,0.0479133\Polar=15.1702
 14,0.,15.170214,0.,0.,15.170214\Quadrupole=0.,0.,0.,0.,0.,0.\PG=TD [O(
 C1),4C3(H1)]\NImag=0\\0.54226621,0.,0.54226621,0.,0.,0.54226621,-0.045
 12375,0.,0.,0.04457347,0.,-0.04512375,0.,0.,0.04457347,0.,0.,-0.316452
 16,0.,0.,0.34343527,-0.04512375,0.,0.,-0.00158269,0.,0.,0.04457347,0.,
 -0.28630456,-0.08527029,0.,0.00194955,0.00048229,0.,0.31022841,0.,-0.0
 8527029,-0.07527135,0.,-0.03143636,-0.00899437,0.,0.09392320,0.0777803
 4,-0.22600936,0.10443436,-0.07384624,0.00106649,-0.00152950,0.00041767
 ,0.00106649,-0.00090362,0.00130281,0.24381467,0.10443436,-0.10541895,0
 .04263515,-0.00152950,-0.00069963,-0.00024114,0.02515784,-0.01293670,0
 .01139172,-0.11503196,0.11098720,-0.07384624,0.04263515,-0.07527135,-0
 .02722468,0.01571818,-0.00899437,0.01051692,-0.00456760,0.00324269,0.0
 8133988,-0.04696160,0.07778034,-0.22600936,-0.10443436,0.07384624,0.00
 106649,0.00152950,-0.00041767,0.00106649,0.00090362,-0.00130281,-0.019
 93829,-0.01303073,0.00921412,0.24381467,-0.10443436,-0.10541895,0.0426
 3515,0.00152950,-0.00069963,-0.00024114,-0.02515784,-0.01293669,0.0113
 9172,0.01303073,0.00806808,-0.00682413,0.11503196,0.11098720,0.0738462
 4,0.04263515,-0.07527135,0.02722468,0.01571818,-0.00899437,-0.01051692
 ,-0.00456760,0.00324269,-0.00921412,-0.00682413,0.00324269,-0.08133988
 ,-0.04696160,0.07778033\\0.,0.,0.,0.,0.,-0.00014864,0.,0.00014014,0.00
 004955,0.00012136,-0.00007007,0.00004955,-0.00012136,-0.00007007,0.000
 04955\\\@
 The archive entry for this job was punched.


 BULLDOZER: SOMEONE WHO SLEEPS THROUGH SPEECHES.
 Job cpu time:       0 days  0 hours  0 minutes 29.1 seconds.
 Elapsed time:       0 days  0 hours  0 minutes  2.8 seconds.
 File lengths (MBytes):  RWF=      6 Int=      0 D2E=      0 Chk=      1 Scr=      1
 Normal termination of Gaussian 16 at Fri Jul 28 16:26:59 2023.
