
                                 *****************
                                 * O   R   C   A *
                                 *****************

                                            #,                                       
                                            ###                                      
                                            ####                                     
                                            #####                                    
                                            ######                                   
                                           ########,                                 
                                     ,,################,,,,,                         
                               ,,#################################,,                 
                          ,,##########################################,,             
                       ,#########################################, ''#####,          
                    ,#############################################,,   '####,        
                  ,##################################################,,,,####,       
                ,###########''''           ''''###############################       
              ,#####''   ,,,,##########,,,,          '''####'''          '####       
            ,##' ,,,,###########################,,,                        '##       
           ' ,,###''''                  '''############,,,                           
         ,,##''                                '''############,,,,        ,,,,,,###''
      ,#''                                            '''#######################'''  
     '                                                          ''''####''''         
             ,#######,   #######,   ,#######,      ##                                
            ,#'     '#,  ##    ##  ,#'     '#,    #''#        ######   ,####,        
            ##       ##  ##   ,#'  ##            #'  '#       #        #'  '#        
            ##       ##  #######   ##           ,######,      #####,   #    #        
            '#,     ,#'  ##    ##  '#,     ,#' ,#      #,         ##   #,  ,#        
             '#######'   ##     ##  '#######'  #'      '#     #####' # '####'        



                  #######################################################
                  #                        -***-                        #
                  #          Department of theory and spectroscopy      #
                  #    Directorship and core code : Frank Neese         #
                  #        Max Planck Institute fuer Kohlenforschung    #
                  #                Kaiser Wilhelm Platz 1               #
                  #                 D-45470 Muelheim/Ruhr               #
                  #                      Germany                        #
                  #                                                     #
                  #                  All rights reserved                #
                  #                        -***-                        #
                  #######################################################


                         Program Version 5.0.4 -  RELEASE  -


 With contributions from (in alphabetic order):
   Daniel Aravena         : Magnetic Suceptibility
   Michael Atanasov       : Ab Initio Ligand Field Theory (pilot matlab implementation)
   Alexander A. Auer      : GIAO ZORA, VPT2 properties, NMR spectrum
   Ute Becker             : Parallelization
   Giovanni Bistoni       : ED, misc. LED, open-shell LED, HFLD
   Martin Brehm           : Molecular dynamics
   Dmytro Bykov           : SCF Hessian
   Vijay G. Chilkuri      : MRCI spin determinant printing, contributions to CSF-ICE
   Dipayan Datta          : RHF DLPNO-CCSD density
   Achintya Kumar Dutta   : EOM-CC, STEOM-CC
   Dmitry Ganyushin       : Spin-Orbit,Spin-Spin,Magnetic field MRCI
   Miquel Garcia          : C-PCM and meta-GGA Hessian, CC/C-PCM, Gaussian charge scheme
   Yang Guo               : DLPNO-NEVPT2, F12-NEVPT2, CIM, IAO-localization
   Andreas Hansen         : Spin unrestricted coupled pair/coupled cluster methods
   Benjamin Helmich-Paris : MC-RPA, TRAH-SCF, COSX integrals
   Lee Huntington         : MR-EOM, pCC
   Robert Izsak           : Overlap fitted RIJCOSX, COSX-SCS-MP3, EOM
   Marcus Kettner         : VPT2
   Christian Kollmar      : KDIIS, OOCD, Brueckner-CCSD(T), CCSD density, CASPT2, CASPT2-K
   Simone Kossmann        : Meta GGA functionals, TD-DFT gradient, OOMP2, MP2 Hessian
   Martin Krupicka        : Initial AUTO-CI
   Lucas Lang             : DCDCAS
   Marvin Lechner         : AUTO-CI (C++ implementation), FIC-MRCC
   Dagmar Lenk            : GEPOL surface, SMD
   Dimitrios Liakos       : Extrapolation schemes; Compound Job, initial MDCI parallelization
   Dimitrios Manganas     : Further ROCIS development; embedding schemes
   Dimitrios Pantazis     : SARC Basis sets
   Anastasios Papadopoulos: AUTO-CI, single reference methods and gradients
   Taras Petrenko         : DFT Hessian,TD-DFT gradient, ASA, ECA, R-Raman, ABS, FL, XAS/XES, NRVS
   Peter Pinski           : DLPNO-MP2, DLPNO-MP2 Gradient
   Christoph Reimann      : Effective Core Potentials
   Marius Retegan         : Local ZFS, SOC
   Christoph Riplinger    : Optimizer, TS searches, QM/MM, DLPNO-CCSD(T), (RO)-DLPNO pert. Triples
   Tobias Risthaus        : Range-separated hybrids, TD-DFT gradient, RPA, STAB
   Michael Roemelt        : Original ROCIS implementation
   Masaaki Saitow         : Open-shell DLPNO-CCSD energy and density
   Barbara Sandhoefer     : DKH picture change effects
   Avijit Sen             : IP-ROCIS
   Kantharuban Sivalingam : CASSCF convergence, NEVPT2, FIC-MRCI
   Bernardo de Souza      : ESD, SOC TD-DFT
   Georgi Stoychev        : AutoAux, RI-MP2 NMR, DLPNO-MP2 response
   Willem Van den Heuvel  : Paramagnetic NMR
   Boris Wezisla          : Elementary symmetry handling
   Frank Wennmohs         : Technical directorship


 We gratefully acknowledge several colleagues who have allowed us to
 interface, adapt or use parts of their codes:
   Stefan Grimme, W. Hujo, H. Kruse, P. Pracht,  : VdW corrections, initial TS optimization,
                  C. Bannwarth, S. Ehlert          DFT functionals, gCP, sTDA/sTD-DF
   Ed Valeev, F. Pavosevic, A. Kumar             : LibInt (2-el integral package), F12 methods
   Garnet Chan, S. Sharma, J. Yang, R. Olivares  : DMRG
   Ulf Ekstrom                                   : XCFun DFT Library
   Mihaly Kallay                                 : mrcc  (arbitrary order and MRCC methods)
   Jiri Pittner, Ondrej Demel                    : Mk-CCSD
   Frank Weinhold                                : gennbo (NPA and NBO analysis)
   Christopher J. Cramer and Donald G. Truhlar   : smd solvation model
   Lars Goerigk                                  : TD-DFT with DH, B97 family of functionals
   V. Asgeirsson, H. Jonsson                     : NEB implementation
   FAccTs GmbH                                   : IRC, NEB, NEB-TS, DLPNO-Multilevel, CI-OPT
                                                   MM, QMMM, 2- and 3-layer-ONIOM, Crystal-QMMM,
                                                   LR-CPCM, SF, NACMEs, symmetry and pop. for TD-DFT,
                                                   nearIR, NL-DFT gradient (VV10), updates on ESD,
                                                   ML-optimized integration grids
   S Lehtola, MJT Oliveira, MAL Marques          : LibXC Library
   Liviu Ungur et al                             : ANISO software


 Your calculation uses the libint2 library for the computation of 2-el integrals
 For citations please refer to: http://libint.valeyev.net

 Your ORCA version has been built with support for libXC version: 5.1.0
 For citations please refer to: https://tddft.org/programs/libxc/

 This ORCA versions uses:
   CBLAS   interface :  Fast vector & matrix operations
   LAPACKE interface :  Fast linear algebra routines
   SCALAPACK package :  Parallel linear algebra routines
   Shared memory     :  Shared parallel matrices
   BLAS/LAPACK       :  OpenBLAS 0.3.15  USE64BITINT DYNAMIC_ARCH NO_AFFINITY Zen SINGLE_THREADED
        Core in use  :  Zen
   Copyright (c) 2011-2014, The OpenBLAS Project


Your calculation utilizes the atom-pairwise dispersion correction
with the Becke-Johnson damping scheme (D3BJ)
Cite in your paper:
S.Grimme, S.Ehrlich, L.Goerigk, J Comput Chem, (2011), 32, 1456–1465 
S.Grimme, J.Antony, S.Ehrlich and H.Krieg, J.Chem.Phys., 132, (2010), 154104 
   

================================================================================

----- Orbital basis set information -----
Your calculation utilizes the basis: def2-QZVPP
   F. Weigend and R. Ahlrichs, Phys. Chem. Chem. Phys. 7, 3297 (2005).

----- AuxJ basis set information -----
Your calculation utilizes the auxiliary basis: def2/J
   F. Weigend, Phys. Chem. Chem. Phys. 8, 1057 (2006).

----- AuxC basis set information -----
Your calculation utilizes the auxiliary basis: def2-QZVPP/C
  H-La, Hf-Rn : A. Hellweg, C. Hattig, S. Hofener and W. Klopper, Theor. Chem. Acc. 117, 587 (2007).
        Ce-Lu : J. Chmela and M. E. Harding, Mol. Phys. (2018).

================================================================================
                                        WARNINGS
                       Please study these warnings very carefully!
================================================================================


WARNING: No MP2 level density has been requested!
         To caclulate MP2 level properties use
         %mp2 Density relaxed end
         or
         %mp2 Density unrelaxed end
         Otherwise for double-hybrid DFT only the energy is correct!

WARNING: The frozen-core approximation is turned on by default for 
         the MP2 part of double-hybrid DFT.

INFO   : the flag for use of the SHARK integral package has been found!

================================================================================
                                       INPUT FILE
================================================================================
NAME = H2O.inp
|  1> ! PWPB95 D3 def2-QZVPP def2/J def2-QZVPP/C RIJCOSX tightSCF noautostart miniprint nopop
|  2> %maxcore  20000
|  3> %pal nprocs   8 end
|  4> * xyz   0   1
|  5> O     -0.96034500    0.23690300    0.00000000
|  6> H      0.00023100    0.28454200    0.00000000
|  7> H     -1.23608500    1.15828400    0.00000000
|  8>  *
|  9> 
| 10>                          ****END OF INPUT****
================================================================================

                       ****************************
                       * Single Point Calculation *
                       ****************************

---------------------------------
CARTESIAN COORDINATES (ANGSTROEM)
---------------------------------
  O     -0.960345    0.236903    0.000000
  H      0.000231    0.284542    0.000000
  H     -1.236085    1.158284    0.000000

----------------------------
CARTESIAN COORDINATES (A.U.)
----------------------------
  NO LB      ZA    FRAG     MASS         X           Y           Z
   0 O     8.0000    0    15.999   -1.814789    0.447682    0.000000
   1 H     1.0000    0     1.008    0.000437    0.537706    0.000000
   2 H     1.0000    0     1.008   -2.335862    2.188840    0.000000



           ************************************************************
           *        Program running with 8 parallel MPI-processes     *
           *              working on a common directory               *
           ************************************************************
------------------------------------------------------------------------------
                   ___                                                        
                  /   \      - P O W E R E D   B Y -                         
                 /     \                                                     
                 |  |  |   _    _      __       _____    __    __             
                 |  |  |  | |  | |    /  \     |  _  \  |  |  /  |          
                  \  \/   | |  | |   /    \    | | | |  |  | /  /          
                 / \  \   | |__| |  /  /\  \   | |_| |  |  |/  /          
                |  |  |   |  __  | /  /__\  \  |    /   |      \           
                |  |  |   | |  | | |   __   |  |    \   |  |\   \          
                \     /   | |  | | |  |  |  |  | |\  \  |  | \   \       
                 \___/    |_|  |_| |__|  |__|  |_| \__\ |__|  \__/        
                                                                              
                      - O R C A' S   B I G   F R I E N D -                    
                                      &                                       
                       - I N T E G R A L  F E E D E R -                       
                                                                              
 v1 FN, 2020, v2 2021                                                         
------------------------------------------------------------------------------


Reading SHARK input file H2O.SHARKINP.tmp ... ok
----------------------
SHARK INTEGRAL PACKAGE
----------------------

Number of atoms                             ...      3
Number of basis functions                   ...    117
Number of shells                            ...     37
Maximum angular momentum                    ...      4
Integral batch strategy                     ... SHARK/LIBINT Hybrid
RI-J (if used) integral strategy            ... SPLIT-RIJ (Revised 2003 algorithm where possible)
Printlevel                                  ...      1
Contraction scheme used                     ... SEGMENTED contraction
Coulomb Range Separation                    ... NOT USED
Exchange Range Separation                   ... NOT USED
Finite Nucleus Model                        ... NOT USED
Auxiliary Coulomb fitting basis             ... AVAILABLE
   # of basis functions in Aux-J            ...     71
   # of shells in Aux-J                     ...     25
   Maximum angular momentum in Aux-J        ...      4
Auxiliary J/K fitting basis                 ... NOT available
Auxiliary Correlation fitting basis         ... AVAILABLE
   # of basis functions in Aux-C            ...    253
   # of shells in Aux-C                     ...     65
   Maximum angular momentum in Aux-C        ...      5
Auxiliary 'external' fitting basis          ... NOT available
Integral threshold                          ...     2.500000e-11
Primitive cut-off                           ...     2.500000e-12
Primitive pair pre-selection threshold      ...     2.500000e-12

Calculating pre-screening integrals         ... done (  0.0 sec) Dimension = 37
Organizing shell pair data                  ... done (  0.1 sec)
Shell pair information
Total number of shell pairs                 ...       703
Shell pairs after pre-screening             ...       703
Total number of primitive shell pairs       ...      1591
Primitive shell pairs kept                  ...      1529
          la=0 lb=0:    120 shell pairs
          la=1 lb=0:    150 shell pairs
          la=1 lb=1:     55 shell pairs
          la=2 lb=0:    105 shell pairs
          la=2 lb=1:     70 shell pairs
          la=2 lb=2:     28 shell pairs
          la=3 lb=0:     60 shell pairs
          la=3 lb=1:     40 shell pairs
          la=3 lb=2:     28 shell pairs
          la=3 lb=3:     10 shell pairs
          la=4 lb=0:     15 shell pairs
          la=4 lb=1:     10 shell pairs
          la=4 lb=2:      7 shell pairs
          la=4 lb=3:      4 shell pairs
          la=4 lb=4:      1 shell pairs

Calculating one electron integrals          ... done (  0.0 sec)
Calculating RI/J V-Matrix + Cholesky decomp.... done (  0.1 sec)
Calculating RI/C V-Matrix + Cholesky decomp.... done (  0.1 sec)
Calculating Nuclear repulsion               ... done (  0.0 sec) ENN=      9.153057233243 Eh

SHARK setup successfully completed in   0.5 seconds

Maximum memory used throughout the entire GTOINT-calculation: 29.1 MB


           ************************************************************
           *        Program running with 8 parallel MPI-processes     *
           *              working on a common directory               *
           ************************************************************

Diagonalization of the overlap matrix:
Smallest eigenvalue                        ... 3.179e-04
Time for diagonalization                   ...    0.001 sec
Threshold for overlap eigenvalues          ... 1.000e-08
Number of eigenvalues below threshold      ... 0
Time for construction of square roots      ...    0.040 sec
Total time needed                          ...    0.041 sec

Time for model grid setup =    0.096 sec

Loading Hartree-Fock densities                     ... done
Calculating cut-offs                               ... done
Initializing the effective Hamiltonian             ... done
Setting up the integral package (SHARK)            ... done
Starting the Coulomb interaction                   ... done (   0.1 sec)
Reading the grid                                   ... done
Mapping shells                                     ... done
Starting the XC term evaluation                    ... done (   0.0 sec)
  promolecular density results
     # of electrons  =      9.998771370
     EX              =     -8.801731624
     EC              =     -0.649320296
     EX+EC           =     -9.451051920
Transforming the Hamiltonian                       ... done (   0.0 sec)
Diagonalizing the Hamiltonian                      ... done (   0.0 sec)
Back transforming the eigenvectors                 ... done (   0.0 sec)
Now organizing SCF variables                       ... done
-------------------
DFT GRID GENERATION
-------------------

General Integration Accuracy     IntAcc      ... 4.388
Radial Grid Type                 RadialGrid  ... OptM3 with GC (2021)
Angular Grid (max. ang.)         AngularGrid ... 4 (Lebedev-302)
Angular grid pruning method      GridPruning ... 4 (adaptive)
Weight generation scheme         WeightScheme... Becke
Basis function cutoff            BFCut       ... 1.0000e-11
Integration weight cutoff        WCut        ... 1.0000e-14
Angular grids for H and He will be reduced by one unit
Partially contracted basis set               ... off
Rotationally invariant grid construction     ... off

Total number of grid points                  ...    13066
Total number of batches                      ...      206
Average number of points per batch           ...       63
Average number of grid points per atom       ...     4355
Time for grid setup =    0.203 sec

--------------------
COSX GRID GENERATION
--------------------

GRIDX 1
-------
General Integration Accuracy     IntAcc      ... 3.816
Radial Grid Type                 RadialGrid  ... OptM3 with GC (2021)
Angular Grid (max. ang.)         AngularGrid ... 1 (Lebedev-50)
Angular grid pruning method      GridPruning ... 4 (adaptive)
Weight generation scheme         WeightScheme... Becke
Basis function cutoff            BFCut       ... 1.0000e-11
Integration weight cutoff        WCut        ... 1.0000e-14
Angular grids for H and He will be reduced by one unit
Partially contracted basis set               ... on
Rotationally invariant grid construction     ... off

Total number of grid points                  ...     1703
Total number of batches                      ...       28
Average number of points per batch           ...       60
Average number of grid points per atom       ...      568
UseSFitting                                  ... on

GRIDX 2
-------
General Integration Accuracy     IntAcc      ... 4.020
Radial Grid Type                 RadialGrid  ... OptM3 with GC (2021)
Angular Grid (max. ang.)         AngularGrid ... 2 (Lebedev-110)
Angular grid pruning method      GridPruning ... 4 (adaptive)
Weight generation scheme         WeightScheme... Becke
Basis function cutoff            BFCut       ... 1.0000e-11
Integration weight cutoff        WCut        ... 1.0000e-14
Angular grids for H and He will be reduced by one unit
Partially contracted basis set               ... on
Rotationally invariant grid construction     ... off

Total number of grid points                  ...     3923
Total number of batches                      ...       63
Average number of points per batch           ...       62
Average number of grid points per atom       ...     1308
UseSFitting                                  ... on

GRIDX 3
-------
General Integration Accuracy     IntAcc      ... 4.338
Radial Grid Type                 RadialGrid  ... OptM3 with GC (2021)
Angular Grid (max. ang.)         AngularGrid ... 3 (Lebedev-194)
Angular grid pruning method      GridPruning ... 4 (adaptive)
Weight generation scheme         WeightScheme... Becke
Basis function cutoff            BFCut       ... 1.0000e-11
Integration weight cutoff        WCut        ... 1.0000e-14
Angular grids for H and He will be reduced by one unit
Partially contracted basis set               ... on
Rotationally invariant grid construction     ... off

Total number of grid points                  ...     8526
Total number of batches                      ...      135
Average number of points per batch           ...       63
Average number of grid points per atom       ...     2842
UseSFitting                                  ... on

Time for X-Grid setup             =    0.521 sec

--------------
SCF ITERATIONS
--------------
ITER       Energy         Delta-E        Max-DP      RMS-DP      [F,P]     Damp
               ***  Starting incremental Fock matrix formation  ***
  0    -76.2395771572   0.000000000000 0.03911695  0.00103210  0.4103175 0.7000
  1    -76.2947289042  -0.055151746968 0.02169102  0.00063899  0.1945217 0.7000
                               ***Turning on DIIS***
  2    -76.3160810866  -0.021352182436 0.02989433  0.00085086  0.0717935 0.0000
  3    -76.3498951144  -0.033814027786 0.01779507  0.00047375  0.0976171 0.0000
  4    -76.3572248999  -0.007329785509 0.00351390  0.00009790  0.0111686 0.0000
                      *** Initiating the SOSCF procedure ***
                           *** Shutting down DIIS ***
                      *** Re-Reading the Fockian *** 
                      *** Removing any level shift *** 
ITER      Energy       Delta-E        Grad      Rot      Max-DP    RMS-DP
  5    -76.35734942  -0.0001245218  0.000936  0.000936  0.001344  0.000032
               *** Restarting incremental Fock matrix formation ***
  6    -76.35730733   0.0000420935  0.000251  0.000361  0.000590  0.000016
  7    -76.35730774  -0.0000004116  0.000059  0.000107  0.000107  0.000003
  8    -76.35730775  -0.0000000120  0.000011  0.000015  0.000010  0.000000
  9    -76.35730775  -0.0000000014  0.000011  0.000006  0.000016  0.000000
                 **** Energy Check signals convergence ****
              ***Rediagonalizing the Fockian in SOSCF/NRSCF***

               *****************************************************
               *                     SUCCESS                       *
               *           SCF CONVERGED AFTER  10 CYCLES          *
               *****************************************************

Old exchange energy                            =     -4.467630984 Eh
New exchange energy                            =     -4.467629609 Eh
Exchange energy change after final integration =      0.000001375 Eh
Total energy after final integration           =    -76.357306379 Eh
Final COS-X integration done in                =     0.133 sec
Total Energy       :          -76.35730638 Eh           -2077.78794 eV
  Last Energy change         ...   -4.8290e-10  Tolerance :   1.0000e-08
  Last MAX-Density change    ...    7.7716e-16  Tolerance :   1.0000e-07
             **** THE GBW FILE WAS UPDATED (H2O.gbw) ****
             **** DENSITY H2O.scfp WAS UPDATED ****
             **** ENERGY FILE WAS UPDATED (H2O.en.tmp) ****
             **** THE GBW FILE WAS UPDATED (H2O.gbw) ****
             **** DENSITY H2O.scfp WAS UPDATED ****
----------------
ORBITAL ENERGIES
----------------

  NO   OCC          E(Eh)            E(eV) 
   0   2.0000     -19.670130      -535.2515 
   1   2.0000      -1.137257       -30.9463 
   2   2.0000      -0.599719       -16.3192 
   3   2.0000      -0.466165       -12.6850 
   4   2.0000      -0.389958       -10.6113 
   5   0.0000       0.044344         1.2067 
   6   0.0000       0.100605         2.7376 
   7   0.0000       0.275287         7.4909 
   8   0.0000       0.304819         8.2945 
   9   0.0000       0.306234         8.3331 
  10   0.0000       0.354957         9.6589 
  11   0.0000       0.436353        11.8738 
  12   0.0000       0.499465        13.5911 
  13   0.0000       0.562639        15.3102 
  14   0.0000       0.617491        16.8028 
  15   0.0000       0.653113        17.7721 
  16   0.0000       0.810865        22.0648 
  17   0.0000       0.936226        25.4760 
  18   0.0000       0.959431        26.1074 
  19   0.0000       1.028720        27.9929 
  20   0.0000       1.077871        29.3304 
  21   0.0000       1.327004        36.1096 
  22   0.0000       1.328679        36.1552 
  23   0.0000       1.343723        36.5646 
  24   0.0000       1.409351        38.3504 
  25   0.0000       1.422861        38.7180 
  26   0.0000       1.477868        40.2148 
  27   0.0000       1.829975        49.7961 
  28   0.0000       1.913795        52.0770 
  29   0.0000       2.016364        54.8681 
  30   0.0000       2.040022        55.5118 
  31   0.0000       2.133264        58.0491 
  32   0.0000       2.292834        62.3912 
  33   0.0000       2.319727        63.1230 
  34   0.0000       2.352974        64.0277 
  35   0.0000       2.364052        64.3291 
  36   0.0000       2.437028        66.3149 
  37   0.0000       2.549868        69.3854 
  38   0.0000       2.592939        70.5575 
  39   0.0000       2.674276        72.7707 
  40   0.0000       2.703910        73.5771 
  41   0.0000       2.884147        78.4816 
  42   0.0000       2.971487        80.8583 
  43   0.0000       3.155808        85.8739 
  44   0.0000       3.167926        86.2037 
  45   0.0000       3.299237        89.7768 
  46   0.0000       3.757075       102.2352 
  47   0.0000       3.874161       105.4213 
  48   0.0000       3.911454       106.4361 
  49   0.0000       3.930243       106.9474 
  50   0.0000       4.100277       111.5742 
  51   0.0000       4.148023       112.8734 
  52   0.0000       4.270393       116.2033 
  53   0.0000       4.287090       116.6576 
  54   0.0000       4.460396       121.3735 
  55   0.0000       4.663110       126.8897 
  56   0.0000       4.816322       131.0588 
  57   0.0000       4.848024       131.9214 
  58   0.0000       5.308006       144.4382 
  59   0.0000       5.400910       146.9662 
  60   0.0000       5.401061       146.9703 
  61   0.0000       5.747065       156.3856 
  62   0.0000       5.942545       161.7049 
  63   0.0000       6.019218       163.7912 
  64   0.0000       6.113844       166.3662 
  65   0.0000       6.469755       176.0510 
  66   0.0000       6.546016       178.1261 
  67   0.0000       6.797426       184.9674 
  68   0.0000       7.084993       192.7925 
  69   0.0000       7.127058       193.9371 
  70   0.0000       7.167742       195.0442 
  71   0.0000       7.194258       195.7657 
  72   0.0000       7.281114       198.1292 
  73   0.0000       7.361159       200.3073 
  74   0.0000       7.396326       201.2642 
  75   0.0000       7.443694       202.5532 
  76   0.0000       7.504271       204.2016 
  77   0.0000       7.732256       210.4054 
  78   0.0000       7.823635       212.8919 
  79   0.0000       7.882023       214.4808 
  80   0.0000       7.917716       215.4520 
  81   0.0000       7.930131       215.7898 
  82   0.0000       8.063630       219.4225 
  83   0.0000       8.112074       220.7408 
  84   0.0000       8.349073       227.1898 
  85   0.0000       8.515504       231.7186 
  86   0.0000       8.624568       234.6864 
  87   0.0000       8.783050       238.9989 
  88   0.0000       8.811689       239.7782 
  89   0.0000       9.067427       246.7372 
  90   0.0000       9.121775       248.2161 
  91   0.0000       9.911449       269.7042 
  92   0.0000       9.934495       270.3313 
  93   0.0000      10.313049       280.6323 
  94   0.0000      10.348306       281.5917 
  95   0.0000      10.777271       293.2645 
  96   0.0000      10.790525       293.6251 
  97   0.0000      11.004046       299.4353 
  98   0.0000      11.126595       302.7700 
  99   0.0000      11.198299       304.7212 
 100   0.0000      11.409501       310.4683 
 101   0.0000      11.549652       314.2820 
 102   0.0000      11.808997       321.3392 
 103   0.0000      11.858814       322.6947 
 104   0.0000      11.911852       324.1380 
 105   0.0000      11.968605       325.6823 
 106   0.0000      12.289684       334.4193 
 107   0.0000      12.931725       351.8901 
 108   0.0000      13.588088       369.7507 
 109   0.0000      13.628666       370.8549 
 110   0.0000      13.748153       374.1063 
 111   0.0000      14.155695       385.1960 
 112   0.0000      14.490948       394.3187 
 113   0.0000      16.699306       454.4112 
 114   0.0000      16.708198       454.6532 
 115   0.0000      48.627015      1323.2084 
 116   0.0000     254.266232      6918.9359 
Total SCF time: 0 days 0 hours 0 min 9 sec 

Maximum memory used throughout the entire SCF-calculation: 62.2 MB


           ************************************************************
           *        Program running with 8 parallel MPI-processes     *
           *              working on a common directory               *
           ************************************************************

------------------------------------------------------------------------------
                                ORCA  MP2 
------------------------------------------------------------------------------

Freezing NCore=2 chemical core electrons

   <<< Use J-auxbasis for calculation of Separable RI-J derivative contributions (Dim=71) >>> 


-------------
RI-MP2 ENERGY
-------------
Dimension of the basis                    ...  117
Memory devoted to MP2                     ... 20000 MB   
Data format for buffers                   ... DOUBLE
Compression type for matrix containers    ... UNCOMPRESSED
Scaling for aa/bb pairs                   ...   0.000e+00
Scaling for ab pairs                      ...   1.000e+00
Overall scaling of the MP2 energy         ...   2.690e-01
Calculating two index integrals           ... done (    0.001 sec)
Cholesky decomposition of V**-1           ... done (    0.012 sec)

-----------------
RI-TRANSFORMATION (AUX index driven)
-----------------

Dimension of the orbital-basis         ... 117
Dimension of the aux-basis             ... 253
Transformation of internal/external MOs...    1-   4 to    5- 116
Number Format for Storage              ... Double (8 Byte)
Integral mode                          ... Direct

First Phase: integral generation and transformation of MO indices
  Aux angular momentum 0               ... done (    0.020 sec)
  Aux angular momentum 1               ... done (    0.040 sec)
  Aux angular momentum 2               ... done (    0.062 sec)
  Aux angular momentum 3               ... done (    0.065 sec)
  Aux angular momentum 4               ... done (    0.036 sec)
  Aux angular momentum 5               ... done (    0.020 sec)
Closing buffer VIA ( 0.00 GB; CompressionRatio= 1.00)
  Phase 1 completed in     0.341 sec
Second Phase: sorting and transformation of aux index

IA-Transformation
Memory available                       ... 19959 MB 
Max. # MO pairs treated in a batch     ... 1    
# of internal orbitals                 ... 4
# batches for internal orbitals        ... 1
Closing buffer IAV ( 0.00 GB; CompressionRatio= 1.00)
(ia|v) transformation done in     0.066 sec

  Phase 2 completed in     0.118 sec
RI-Integral transformation completed in     0.481 sec
Opening buffers                              ... done

Starting loop over batches of integrals:

Operator 0  - window                       ... (  1-  4)x(  5-116)
Operator 0  - Memory available             ... 20000 MB
Operator 0  - Memory needed per MO         ...   0.2 MB
Operator 0  - Number of orbitals per batch ... 1
Operator 0  - Number of batches            ... 1

OPERATOR  0   PASS   0:  MOs     1 ...    1 +    2 ...    2 +    3 ...    3 +    4 ...    4
  Reading integrals       ... ok
Time spent in pair loops =     0.005 sec
Deleting buffer (Ka|jb)[aa] ...done

-----------------------------------------------
 RI-MP2 CORRELATION ENERGY:     -0.069320561 Eh
-----------------------------------------------


-------
TIMINGS
-------

Total time                :    0.555 sec
Integral trafo            :    0.491 sec ( 88.5%)
I/O of integrals          :    0.002 sec (  0.3%)
K(i,j) Operators          :    0.000 sec (  0.0%)
T(i,j) pair energies      :    0.000 sec (  0.0%)
V-calculation             :    0.001 sec (  0.1%)
V**(-1/2)                 :    0.012 sec (  2.1%)
Gamma(ia|P)               :    0.000 sec (  0.0%)
Gamma-Trafo               :    0.000 sec (  0.0%)
D(virtual)                :    0.000 sec (  0.0%)
D(internal)               :    0.000 sec (  0.0%)
W(virtual)                :    0.000 sec (  0.0%)
W(internal)               :    0.000 sec (  0.0%)
L(virtual)                :    0.000 sec (  0.0%)
L(internal)               :    0.000 sec (  0.0%)
G(D)                      :    0.000 sec (  0.0%)
G(Z)                      :    0.000 sec (  0.0%)
Z-Vector Solution         :    0.000 sec (  0.0%)
3-Index Derivative        :    0.000 sec (  0.0%)
2-Index Derivative        :    0.000 sec (  0.0%)
Separable Gradient (RIJ)  :    0.000 sec (  0.0%)
Separable Gradient (COSX) :    0.000 sec (  0.0%)


---------------------------------------
MP2 TOTAL ENERGY:      -76.426626940 Eh
---------------------------------------

Maximum memory used throughout the entire MP2-calculation: 81.4 MB


-------------------------------------------------------------------------------
                          DFT DISPERSION CORRECTION                            
                                                                               
                              DFTD3 V3.1  Rev 1                                
                          USING Becke-Johnson damping                          
-------------------------------------------------------------------------------
-------------------------   ----------------
Dispersion correction           -0.000082082
-------------------------   ----------------


-------------------------   --------------------
FINAL SINGLE POINT ENERGY       -76.426709022075
-------------------------   --------------------


                            ***************************************
                            *     ORCA property calculations      *
                            ***************************************


  WARNING: The energy has been calculated at the MP2 level but the densities
           used in the property calculations are still SCF densities
           MP2 response densities have not been calculated 
           use %mp2 Density relaxed end
           or  %mp2 Density unrelaxed end

                                    ---------------------
                                    Active property flags
                                    ---------------------
   (+) Dipole Moment


------------------------------------------------------------------------------
                       ORCA ELECTRIC PROPERTIES CALCULATION
------------------------------------------------------------------------------

Dipole Moment Calculation                       ... on
Quadrupole Moment Calculation                   ... off
Polarizability Calculation                      ... off
GBWName                                         ... H2O.gbw
Electron density                                ... H2O.scfp
The origin for moment calculation is the CENTER OF MASS  = (-1.742377,  0.550143  0.000000)

-------------
DIPOLE MOMENT
-------------
                                X             Y             Z
Electronic contribution:     -0.12383      -0.17529       0.00000
Nuclear contribution   :      0.57003       0.80657       0.00000
                        -----------------------------------------
Total Dipole Moment    :      0.44620       0.63129       0.00000
                        -----------------------------------------
Magnitude (a.u.)       :      0.77306
Magnitude (Debye)      :      1.96496



--------------------
Rotational spectrum 
--------------------
 
Rotational constants in cm-1:    26.748849    14.593863     9.442270 
Rotational constants in MHz : 801910.329405 437512.998619 283072.123066 

 Dipole components along the rotational axes: 
x,y,z [a.u.] :    -0.000044     0.773058     0.000000 
x,y,z [Debye]:    -0.000111     1.964956     0.000000 

 

Timings for individual modules:

Sum of individual times         ...       11.375 sec (=   0.190 min)
GTO integral calculation        ...        0.639 sec (=   0.011 min)   5.6 %
SCF iterations                  ...        9.913 sec (=   0.165 min)  87.1 %
MP2 module                      ...        0.823 sec (=   0.014 min)   7.2 %
                             ****ORCA TERMINATED NORMALLY****
TOTAL RUN TIME: 0 days 0 hours 0 minutes 12 seconds 674 msec
