
                                 *****************
                                 * O   R   C   A *
                                 *****************

                                            #,                                       
                                            ###                                      
                                            ####                                     
                                            #####                                    
                                            ######                                   
                                           ########,                                 
                                     ,,################,,,,,                         
                               ,,#################################,,                 
                          ,,##########################################,,             
                       ,#########################################, ''#####,          
                    ,#############################################,,   '####,        
                  ,##################################################,,,,####,       
                ,###########''''           ''''###############################       
              ,#####''   ,,,,##########,,,,          '''####'''          '####       
            ,##' ,,,,###########################,,,                        '##       
           ' ,,###''''                  '''############,,,                           
         ,,##''                                '''############,,,,        ,,,,,,###''
      ,#''                                            '''#######################'''  
     '                                                          ''''####''''         
             ,#######,   #######,   ,#######,      ##                                
            ,#'     '#,  ##    ##  ,#'     '#,    #''#        ######   ,####,        
            ##       ##  ##   ,#'  ##            #'  '#       #        #'  '#        
            ##       ##  #######   ##           ,######,      #####,   #    #        
            '#,     ,#'  ##    ##  '#,     ,#' ,#      #,         ##   #,  ,#        
             '#######'   ##     ##  '#######'  #'      '#     #####' # '####'        



                  #######################################################
                  #                        -***-                        #
                  #          Department of theory and spectroscopy      #
                  #    Directorship and core code : Frank Neese         #
                  #        Max Planck Institute fuer Kohlenforschung    #
                  #                Kaiser Wilhelm Platz 1               #
                  #                 D-45470 Muelheim/Ruhr               #
                  #                      Germany                        #
                  #                                                     #
                  #                  All rights reserved                #
                  #                        -***-                        #
                  #######################################################


                         Program Version 5.0.4 -  RELEASE  -


 With contributions from (in alphabetic order):
   Daniel Aravena         : Magnetic Suceptibility
   Michael Atanasov       : Ab Initio Ligand Field Theory (pilot matlab implementation)
   Alexander A. Auer      : GIAO ZORA, VPT2 properties, NMR spectrum
   Ute Becker             : Parallelization
   Giovanni Bistoni       : ED, misc. LED, open-shell LED, HFLD
   Martin Brehm           : Molecular dynamics
   Dmytro Bykov           : SCF Hessian
   Vijay G. Chilkuri      : MRCI spin determinant printing, contributions to CSF-ICE
   Dipayan Datta          : RHF DLPNO-CCSD density
   Achintya Kumar Dutta   : EOM-CC, STEOM-CC
   Dmitry Ganyushin       : Spin-Orbit,Spin-Spin,Magnetic field MRCI
   Miquel Garcia          : C-PCM and meta-GGA Hessian, CC/C-PCM, Gaussian charge scheme
   Yang Guo               : DLPNO-NEVPT2, F12-NEVPT2, CIM, IAO-localization
   Andreas Hansen         : Spin unrestricted coupled pair/coupled cluster methods
   Benjamin Helmich-Paris : MC-RPA, TRAH-SCF, COSX integrals
   Lee Huntington         : MR-EOM, pCC
   Robert Izsak           : Overlap fitted RIJCOSX, COSX-SCS-MP3, EOM
   Marcus Kettner         : VPT2
   Christian Kollmar      : KDIIS, OOCD, Brueckner-CCSD(T), CCSD density, CASPT2, CASPT2-K
   Simone Kossmann        : Meta GGA functionals, TD-DFT gradient, OOMP2, MP2 Hessian
   Martin Krupicka        : Initial AUTO-CI
   Lucas Lang             : DCDCAS
   Marvin Lechner         : AUTO-CI (C++ implementation), FIC-MRCC
   Dagmar Lenk            : GEPOL surface, SMD
   Dimitrios Liakos       : Extrapolation schemes; Compound Job, initial MDCI parallelization
   Dimitrios Manganas     : Further ROCIS development; embedding schemes
   Dimitrios Pantazis     : SARC Basis sets
   Anastasios Papadopoulos: AUTO-CI, single reference methods and gradients
   Taras Petrenko         : DFT Hessian,TD-DFT gradient, ASA, ECA, R-Raman, ABS, FL, XAS/XES, NRVS
   Peter Pinski           : DLPNO-MP2, DLPNO-MP2 Gradient
   Christoph Reimann      : Effective Core Potentials
   Marius Retegan         : Local ZFS, SOC
   Christoph Riplinger    : Optimizer, TS searches, QM/MM, DLPNO-CCSD(T), (RO)-DLPNO pert. Triples
   Tobias Risthaus        : Range-separated hybrids, TD-DFT gradient, RPA, STAB
   Michael Roemelt        : Original ROCIS implementation
   Masaaki Saitow         : Open-shell DLPNO-CCSD energy and density
   Barbara Sandhoefer     : DKH picture change effects
   Avijit Sen             : IP-ROCIS
   Kantharuban Sivalingam : CASSCF convergence, NEVPT2, FIC-MRCI
   Bernardo de Souza      : ESD, SOC TD-DFT
   Georgi Stoychev        : AutoAux, RI-MP2 NMR, DLPNO-MP2 response
   Willem Van den Heuvel  : Paramagnetic NMR
   Boris Wezisla          : Elementary symmetry handling
   Frank Wennmohs         : Technical directorship


 We gratefully acknowledge several colleagues who have allowed us to
 interface, adapt or use parts of their codes:
   Stefan Grimme, W. Hujo, H. Kruse, P. Pracht,  : VdW corrections, initial TS optimization,
                  C. Bannwarth, S. Ehlert          DFT functionals, gCP, sTDA/sTD-DF
   Ed Valeev, F. Pavosevic, A. Kumar             : LibInt (2-el integral package), F12 methods
   Garnet Chan, S. Sharma, J. Yang, R. Olivares  : DMRG
   Ulf Ekstrom                                   : XCFun DFT Library
   Mihaly Kallay                                 : mrcc  (arbitrary order and MRCC methods)
   Jiri Pittner, Ondrej Demel                    : Mk-CCSD
   Frank Weinhold                                : gennbo (NPA and NBO analysis)
   Christopher J. Cramer and Donald G. Truhlar   : smd solvation model
   Lars Goerigk                                  : TD-DFT with DH, B97 family of functionals
   V. Asgeirsson, H. Jonsson                     : NEB implementation
   FAccTs GmbH                                   : IRC, NEB, NEB-TS, DLPNO-Multilevel, CI-OPT
                                                   MM, QMMM, 2- and 3-layer-ONIOM, Crystal-QMMM,
                                                   LR-CPCM, SF, NACMEs, symmetry and pop. for TD-DFT,
                                                   nearIR, NL-DFT gradient (VV10), updates on ESD,
                                                   ML-optimized integration grids
   S Lehtola, MJT Oliveira, MAL Marques          : LibXC Library
   Liviu Ungur et al                             : ANISO software


 Your calculation uses the libint2 library for the computation of 2-el integrals
 For citations please refer to: http://libint.valeyev.net

 Your ORCA version has been built with support for libXC version: 5.1.0
 For citations please refer to: https://tddft.org/programs/libxc/

 This ORCA versions uses:
   CBLAS   interface :  Fast vector & matrix operations
   LAPACKE interface :  Fast linear algebra routines
   SCALAPACK package :  Parallel linear algebra routines
   Shared memory     :  Shared parallel matrices
   BLAS/LAPACK       :  OpenBLAS 0.3.15  USE64BITINT DYNAMIC_ARCH NO_AFFINITY Zen SINGLE_THREADED
        Core in use  :  Zen
   Copyright (c) 2011-2014, The OpenBLAS Project


Your calculation utilizes the atom-pairwise dispersion correction
with the Becke-Johnson damping scheme (D3BJ)
Cite in your paper:
S.Grimme, S.Ehrlich, L.Goerigk, J Comput Chem, (2011), 32, 1456–1465 
S.Grimme, J.Antony, S.Ehrlich and H.Krieg, J.Chem.Phys., 132, (2010), 154104 
   

================================================================================

----- Orbital basis set information -----
Your calculation utilizes the basis: def2-QZVPP
   F. Weigend and R. Ahlrichs, Phys. Chem. Chem. Phys. 7, 3297 (2005).

----- AuxJ basis set information -----
Your calculation utilizes the auxiliary basis: def2/J
   F. Weigend, Phys. Chem. Chem. Phys. 8, 1057 (2006).

----- AuxC basis set information -----
Your calculation utilizes the auxiliary basis: def2-QZVPP/C
  H-La, Hf-Rn : A. Hellweg, C. Hattig, S. Hofener and W. Klopper, Theor. Chem. Acc. 117, 587 (2007).
        Ce-Lu : J. Chmela and M. E. Harding, Mol. Phys. (2018).

================================================================================
                                        WARNINGS
                       Please study these warnings very carefully!
================================================================================


WARNING: No MP2 level density has been requested!
         To caclulate MP2 level properties use
         %mp2 Density relaxed end
         or
         %mp2 Density unrelaxed end
         Otherwise for double-hybrid DFT only the energy is correct!

WARNING: The frozen-core approximation is turned on by default for 
         the MP2 part of double-hybrid DFT.

INFO   : the flag for use of the SHARK integral package has been found!

================================================================================
                                       INPUT FILE
================================================================================
NAME = reaction1_react_SP.inp
|  1> ! PWPB95 D3 def2-QZVPP def2/J def2-QZVPP/C RIJCOSX tightSCF noautostart miniprint nopop
|  2> %maxcore  20000
|  3> %pal nprocs   8 end
|  4> * xyz   0   1
|  5> C      1.87532500   -0.07089700    0.02276300
|  6> H      2.11547300   -1.12709300    0.05646600
|  7> H      2.68707600    0.64422900    0.01941400
|  8> C      0.61484700    0.35048500   -0.02090000
|  9> H      0.36224000    1.40999000   -0.05450700
| 10> O     -0.44460400   -0.50170300   -0.03963000
| 11> C     -1.72484700    0.10944900    0.02646300
| 12> H     -1.88194200    0.79983100   -0.81044400
| 13> H     -2.45522900   -0.69559100   -0.03479000
| 14> H     -1.86273800    0.64803400    0.97094500
| 15>  *
| 16> 
| 17>                          ****END OF INPUT****
================================================================================

                       ****************************
                       * Single Point Calculation *
                       ****************************

---------------------------------
CARTESIAN COORDINATES (ANGSTROEM)
---------------------------------
  C      1.875325   -0.070897    0.022763
  H      2.115473   -1.127093    0.056466
  H      2.687076    0.644229    0.019414
  C      0.614847    0.350485   -0.020900
  H      0.362240    1.409990   -0.054507
  O     -0.444604   -0.501703   -0.039630
  C     -1.724847    0.109449    0.026463
  H     -1.881942    0.799831   -0.810444
  H     -2.455229   -0.695591   -0.034790
  H     -1.862738    0.648034    0.970945

----------------------------
CARTESIAN COORDINATES (A.U.)
----------------------------
  NO LB      ZA    FRAG     MASS         X           Y           Z
   0 C     6.0000    0    12.011    3.543851   -0.133976    0.043016
   1 H     1.0000    0     1.008    3.997665   -2.129897    0.106705
   2 H     1.0000    0     1.008    5.077838    1.217416    0.036687
   3 C     6.0000    0    12.011    1.161892    0.662321   -0.039495
   4 H     1.0000    0     1.008    0.684534    2.664495   -0.103003
   5 O     8.0000    0    15.999   -0.840180   -0.948081   -0.074890
   6 C     6.0000    0    12.011   -3.259488    0.206829    0.050008
   7 H     1.0000    0     1.008   -3.556355    1.511462   -1.531517
   8 H     1.0000    0     1.008   -4.639710   -1.314476   -0.065744
   9 H     1.0000    0     1.008   -3.520065    1.224607    1.834820



           ************************************************************
           *        Program running with 8 parallel MPI-processes     *
           *              working on a common directory               *
           ************************************************************
------------------------------------------------------------------------------
                   ___                                                        
                  /   \      - P O W E R E D   B Y -                         
                 /     \                                                     
                 |  |  |   _    _      __       _____    __    __             
                 |  |  |  | |  | |    /  \     |  _  \  |  |  /  |          
                  \  \/   | |  | |   /    \    | | | |  |  | /  /          
                 / \  \   | |__| |  /  /\  \   | |_| |  |  |/  /          
                |  |  |   |  __  | /  /__\  \  |    /   |      \           
                |  |  |   | |  | | |   __   |  |    \   |  |\   \          
                \     /   | |  | | |  |  |  |  | |\  \  |  | \   \       
                 \___/    |_|  |_| |__|  |__|  |_| \__\ |__|  \__/        
                                                                              
                      - O R C A' S   B I G   F R I E N D -                    
                                      &                                       
                       - I N T E G R A L  F E E D E R -                       
                                                                              
 v1 FN, 2020, v2 2021                                                         
------------------------------------------------------------------------------


Reading SHARK input file reaction1_react_SP.SHARKINP.tmp ... ok
----------------------
SHARK INTEGRAL PACKAGE
----------------------

Number of atoms                             ...     10
Number of basis functions                   ...    408
Number of shells                            ...    128
Maximum angular momentum                    ...      4
Integral batch strategy                     ... SHARK/LIBINT Hybrid
RI-J (if used) integral strategy            ... SPLIT-RIJ (Revised 2003 algorithm where possible)
Printlevel                                  ...      1
Contraction scheme used                     ... SEGMENTED contraction
Coulomb Range Separation                    ... NOT USED
Exchange Range Separation                   ... NOT USED
Finite Nucleus Model                        ... NOT USED
Auxiliary Coulomb fitting basis             ... AVAILABLE
   # of basis functions in Aux-J            ...    262
   # of shells in Aux-J                     ...     90
   Maximum angular momentum in Aux-J        ...      4
Auxiliary J/K fitting basis                 ... NOT available
Auxiliary Correlation fitting basis         ... AVAILABLE
   # of basis functions in Aux-C            ...    900
   # of shells in Aux-C                     ...    228
   Maximum angular momentum in Aux-C        ...      5
Auxiliary 'external' fitting basis          ... NOT available
Integral threshold                          ...     2.500000e-11
Primitive cut-off                           ...     2.500000e-12
Primitive pair pre-selection threshold      ...     2.500000e-12

Calculating pre-screening integrals         ... done (  0.0 sec) Dimension = 128
Organizing shell pair data                  ... done (  0.1 sec)
Shell pair information
Total number of shell pairs                 ...      8256
Shell pairs after pre-screening             ...      7490
Total number of primitive shell pairs       ...     19107
Primitive shell pairs kept                  ...     14283
          la=0 lb=0:   1212 shell pairs
          la=1 lb=0:   1622 shell pairs
          la=1 lb=1:    562 shell pairs
          la=2 lb=0:   1113 shell pairs
          la=2 lb=1:    751 shell pairs
          la=2 lb=2:    267 shell pairs
          la=3 lb=0:    651 shell pairs
          la=3 lb=1:    437 shell pairs
          la=3 lb=2:    302 shell pairs
          la=3 lb=3:     93 shell pairs
          la=4 lb=0:    196 shell pairs
          la=4 lb=1:    130 shell pairs
          la=4 lb=2:     90 shell pairs
          la=4 lb=3:     54 shell pairs
          la=4 lb=4:     10 shell pairs

Calculating one electron integrals          ... done (  0.0 sec)
Calculating RI/J V-Matrix + Cholesky decomp.... done (  0.0 sec)
Calculating RI/C V-Matrix + Cholesky decomp.... done (  0.0 sec)
Calculating Nuclear repulsion               ... done (  0.0 sec) ENN=    119.415330383928 Eh

SHARK setup successfully completed in   0.4 seconds

Maximum memory used throughout the entire GTOINT-calculation: 35.6 MB


           ************************************************************
           *        Program running with 8 parallel MPI-processes     *
           *              working on a common directory               *
           ************************************************************

Diagonalization of the overlap matrix:
Smallest eigenvalue                        ... 6.415e-05
Time for diagonalization                   ...    0.013 sec
Threshold for overlap eigenvalues          ... 1.000e-08
Number of eigenvalues below threshold      ... 0
Time for construction of square roots      ...    0.017 sec
Total time needed                          ...    0.031 sec

Time for model grid setup =    0.033 sec

Loading Hartree-Fock densities                     ... done
Calculating cut-offs                               ... done
Initializing the effective Hamiltonian             ... done
Setting up the integral package (SHARK)            ... done
Starting the Coulomb interaction                   ... done (   0.0 sec)
Reading the grid                                   ... done
Mapping shells                                     ... done
Starting the XC term evaluation                    ... done (   0.1 sec)
  promolecular density results
     # of electrons  =     31.996348595
     EX              =    -25.434982807
     EC              =     -2.012713859
     EX+EC           =    -27.447696666
Transforming the Hamiltonian                       ... done (   0.0 sec)
Diagonalizing the Hamiltonian                      ... done (   0.0 sec)
Back transforming the eigenvectors                 ... done (   0.0 sec)
Now organizing SCF variables                       ... done
-------------------
DFT GRID GENERATION
-------------------

General Integration Accuracy     IntAcc      ... 4.388
Radial Grid Type                 RadialGrid  ... OptM3 with GC (2021)
Angular Grid (max. ang.)         AngularGrid ... 4 (Lebedev-302)
Angular grid pruning method      GridPruning ... 4 (adaptive)
Weight generation scheme         WeightScheme... Becke
Basis function cutoff            BFCut       ... 1.0000e-11
Integration weight cutoff        WCut        ... 1.0000e-14
Angular grids for H and He will be reduced by one unit
Partially contracted basis set               ... off
Rotationally invariant grid construction     ... off

Total number of grid points                  ...    44992
Total number of batches                      ...      708
Average number of points per batch           ...       63
Average number of grid points per atom       ...     4499
Time for grid setup =    0.174 sec

--------------------
COSX GRID GENERATION
--------------------

GRIDX 1
-------
General Integration Accuracy     IntAcc      ... 3.816
Radial Grid Type                 RadialGrid  ... OptM3 with GC (2021)
Angular Grid (max. ang.)         AngularGrid ... 1 (Lebedev-50)
Angular grid pruning method      GridPruning ... 4 (adaptive)
Weight generation scheme         WeightScheme... Becke
Basis function cutoff            BFCut       ... 1.0000e-11
Integration weight cutoff        WCut        ... 1.0000e-14
Angular grids for H and He will be reduced by one unit
Partially contracted basis set               ... on
Rotationally invariant grid construction     ... off

Total number of grid points                  ...     5810
Total number of batches                      ...       95
Average number of points per batch           ...       61
Average number of grid points per atom       ...      581
UseSFitting                                  ... on

GRIDX 2
-------
General Integration Accuracy     IntAcc      ... 4.020
Radial Grid Type                 RadialGrid  ... OptM3 with GC (2021)
Angular Grid (max. ang.)         AngularGrid ... 2 (Lebedev-110)
Angular grid pruning method      GridPruning ... 4 (adaptive)
Weight generation scheme         WeightScheme... Becke
Basis function cutoff            BFCut       ... 1.0000e-11
Integration weight cutoff        WCut        ... 1.0000e-14
Angular grids for H and He will be reduced by one unit
Partially contracted basis set               ... on
Rotationally invariant grid construction     ... off

Total number of grid points                  ...    13528
Total number of batches                      ...      216
Average number of points per batch           ...       62
Average number of grid points per atom       ...     1353
UseSFitting                                  ... on

GRIDX 3
-------
General Integration Accuracy     IntAcc      ... 4.338
Radial Grid Type                 RadialGrid  ... OptM3 with GC (2021)
Angular Grid (max. ang.)         AngularGrid ... 3 (Lebedev-194)
Angular grid pruning method      GridPruning ... 4 (adaptive)
Weight generation scheme         WeightScheme... Becke
Basis function cutoff            BFCut       ... 1.0000e-11
Integration weight cutoff        WCut        ... 1.0000e-14
Angular grids for H and He will be reduced by one unit
Partially contracted basis set               ... on
Rotationally invariant grid construction     ... off

Total number of grid points                  ...    29144
Total number of batches                      ...      460
Average number of points per batch           ...       63
Average number of grid points per atom       ...     2914
UseSFitting                                  ... on

Time for X-Grid setup             =    0.236 sec

--------------
SCF ITERATIONS
--------------
ITER       Energy         Delta-E        Max-DP      RMS-DP      [F,P]     Damp
               ***  Starting incremental Fock matrix formation  ***
  0   -192.6959143930   0.000000000000 0.02675786  0.00034278  0.2570122 0.7000
  1   -192.7655314549  -0.069617061899 0.02247529  0.00026553  0.1420866 0.7000
                               ***Turning on DIIS***
  2   -192.8007284862  -0.035197031294 0.04608456  0.00054027  0.0712536 0.0000
  3   -192.8568254969  -0.056097010675 0.01422248  0.00018899  0.0624531 0.0000
  4   -192.8659970187  -0.009171521788 0.00233778  0.00004970  0.0057449 0.0000
  5   -192.8661995695  -0.000202550805 0.00132012  0.00002262  0.0066687 0.0000
                      *** Initiating the SOSCF procedure ***
                           *** Shutting down DIIS ***
                      *** Re-Reading the Fockian *** 
                      *** Removing any level shift *** 
ITER      Energy       Delta-E        Grad      Rot      Max-DP    RMS-DP
  6   -192.86624627  -0.0000467042  0.000397  0.000397  0.000815  0.000016
               *** Restarting incremental Fock matrix formation ***
  7   -192.86625942  -0.0000131511  0.000277  0.000828  0.000627  0.000009
  8   -192.86625931   0.0000001128  0.000273  0.000339  0.000147  0.000002
  9   -192.86626023  -0.0000009135  0.000019  0.000042  0.000027  0.000000
 10   -192.86626023  -0.0000000058  0.000012  0.000019  0.000010  0.000000
                  ***Gradient check signals convergence***
              ***Rediagonalizing the Fockian in SOSCF/NRSCF***

               *****************************************************
               *                     SUCCESS                       *
               *           SCF CONVERGED AFTER  11 CYCLES          *
               *****************************************************

Old exchange energy                            =    -12.945852684 Eh
New exchange energy                            =    -12.945838329 Eh
Exchange energy change after final integration =      0.000014354 Eh
Total energy after final integration           =   -192.866245884 Eh
Final COS-X integration done in                =     2.426 sec
Total Energy       :         -192.86624588 Eh           -5248.15736 eV
  Last Energy change         ...   -7.7076e-09  Tolerance :   1.0000e-08
  Last MAX-Density change    ...    7.7716e-16  Tolerance :   1.0000e-07
             **** THE GBW FILE WAS UPDATED (reaction1_react_SP.gbw) ****
             **** DENSITY reaction1_react_SP.scfp WAS UPDATED ****
             **** ENERGY FILE WAS UPDATED (reaction1_react_SP.en.tmp) ****
             **** THE GBW FILE WAS UPDATED (reaction1_react_SP.gbw) ****
             **** DENSITY reaction1_react_SP.scfp WAS UPDATED ****
----------------
ORBITAL ENERGIES
----------------

  NO   OCC          E(Eh)            E(eV) 
   0   2.0000     -19.693217      -535.8797 
   1   2.0000     -10.625898      -289.1454 
   2   2.0000     -10.623977      -289.0931 
   3   2.0000     -10.549799      -287.0746 
   4   2.0000      -1.187901       -32.3244 
   5   2.0000      -0.866452       -23.5773 
   6   2.0000      -0.778077       -21.1725 
   7   2.0000      -0.659767       -17.9532 
   8   2.0000      -0.579448       -15.7676 
   9   2.0000      -0.538553       -14.6548 
  10   2.0000      -0.536401       -14.5962 
  11   2.0000      -0.463768       -12.6198 
  12   2.0000      -0.449397       -12.2287 
  13   2.0000      -0.409754       -11.1500 
  14   2.0000      -0.397559       -10.8181 
  15   2.0000      -0.274513        -7.4699 
  16   0.0000       0.053556         1.4573 
  17   0.0000       0.059746         1.6258 
  18   0.0000       0.078607         2.1390 
  19   0.0000       0.093583         2.5465 
  20   0.0000       0.107147         2.9156 
  21   0.0000       0.120419         3.2768 
  22   0.0000       0.123162         3.3514 
  23   0.0000       0.134237         3.6528 
  24   0.0000       0.157885         4.2963 
  25   0.0000       0.168037         4.5725 
  26   0.0000       0.189577         5.1586 
  27   0.0000       0.203131         5.5275 
  28   0.0000       0.222105         6.0438 
  29   0.0000       0.251541         6.8448 
  30   0.0000       0.261971         7.1286 
  31   0.0000       0.280920         7.6442 
  32   0.0000       0.310429         8.4472 
  33   0.0000       0.331066         9.0088 
  34   0.0000       0.341491         9.2924 
  35   0.0000       0.348486         9.4828 
  36   0.0000       0.367083         9.9888 
  37   0.0000       0.380894        10.3647 
  38   0.0000       0.402557        10.9541 
  39   0.0000       0.408476        11.1152 
  40   0.0000       0.410310        11.1651 
  41   0.0000       0.422377        11.4935 
  42   0.0000       0.449589        12.2339 
  43   0.0000       0.469298        12.7703 
  44   0.0000       0.481727        13.1085 
  45   0.0000       0.491334        13.3699 
  46   0.0000       0.525664        14.3040 
  47   0.0000       0.539776        14.6880 
  48   0.0000       0.558220        15.1899 
  49   0.0000       0.610718        16.6185 
  50   0.0000       0.650681        17.7059 
  51   0.0000       0.655371        17.8335 
  52   0.0000       0.687366        18.7042 
  53   0.0000       0.691454        18.8154 
  54   0.0000       0.695794        18.9335 
  55   0.0000       0.713121        19.4050 
  56   0.0000       0.727255        19.7896 
  57   0.0000       0.753228        20.4964 
  58   0.0000       0.793653        21.5964 
  59   0.0000       0.802079        21.8257 
  60   0.0000       0.809462        22.0266 
  61   0.0000       0.823739        22.4151 
  62   0.0000       0.840429        22.8692 
  63   0.0000       0.841376        22.8950 
  64   0.0000       0.861000        23.4290 
  65   0.0000       0.868375        23.6297 
  66   0.0000       0.871395        23.7119 
  67   0.0000       0.895960        24.3803 
  68   0.0000       0.900115        24.4934 
  69   0.0000       0.926647        25.2154 
  70   0.0000       0.960180        26.1278 
  71   0.0000       0.969144        26.3718 
  72   0.0000       0.980078        26.6693 
  73   0.0000       0.992433        27.0055 
  74   0.0000       1.010340        27.4928 
  75   0.0000       1.046852        28.4863 
  76   0.0000       1.073563        29.2131 
  77   0.0000       1.075123        29.2556 
  78   0.0000       1.093542        29.7568 
  79   0.0000       1.102546        30.0018 
  80   0.0000       1.115309        30.3491 
  81   0.0000       1.127447        30.6794 
  82   0.0000       1.153520        31.3889 
  83   0.0000       1.183609        32.2076 
  84   0.0000       1.193781        32.4844 
  85   0.0000       1.217569        33.1317 
  86   0.0000       1.243029        33.8246 
  87   0.0000       1.289054        35.0769 
  88   0.0000       1.297112        35.2962 
  89   0.0000       1.347881        36.6777 
  90   0.0000       1.385140        37.6916 
  91   0.0000       1.416718        38.5509 
  92   0.0000       1.440675        39.2028 
  93   0.0000       1.461186        39.7609 
  94   0.0000       1.502280        40.8791 
  95   0.0000       1.551141        42.2087 
  96   0.0000       1.595106        43.4050 
  97   0.0000       1.652913        44.9780 
  98   0.0000       1.681683        45.7609 
  99   0.0000       1.727146        46.9980 
 100   0.0000       1.786026        48.6002 
 101   0.0000       1.800010        48.9808 
 102   0.0000       1.817656        49.4609 
 103   0.0000       1.829221        49.7756 
 104   0.0000       1.854587        50.4659 
 105   0.0000       1.856418        50.5157 
 106   0.0000       1.869351        50.8676 
 107   0.0000       1.878117        51.1062 
 108   0.0000       1.918534        52.2060 
 109   0.0000       1.927736        52.4564 
 110   0.0000       1.955537        53.2129 
 111   0.0000       1.964931        53.4685 
 112   0.0000       1.975702        53.7616 
 113   0.0000       1.989385        54.1339 
 114   0.0000       2.002065        54.4789 
 115   0.0000       2.004908        54.5563 
 116   0.0000       2.030620        55.2560 
 117   0.0000       2.053314        55.8735 
 118   0.0000       2.071520        56.3689 
 119   0.0000       2.096436        57.0469 
 120   0.0000       2.106629        57.3243 
 121   0.0000       2.125352        57.8338 
 122   0.0000       2.147770        58.4438 
 123   0.0000       2.160704        58.7957 
 124   0.0000       2.173438        59.1423 
 125   0.0000       2.191468        59.6329 
 126   0.0000       2.201632        59.9094 
 127   0.0000       2.222077        60.4658 
 128   0.0000       2.225431        60.5571 
 129   0.0000       2.256330        61.3979 
 130   0.0000       2.315272        63.0018 
 131   0.0000       2.339755        63.6680 
 132   0.0000       2.379237        64.7423 
 133   0.0000       2.382822        64.8399 
 134   0.0000       2.399701        65.2992 
 135   0.0000       2.414304        65.6966 
 136   0.0000       2.430768        66.1446 
 137   0.0000       2.445866        66.5554 
 138   0.0000       2.474666        67.3391 
 139   0.0000       2.489340        67.7384 
 140   0.0000       2.510598        68.3168 
 141   0.0000       2.545787        69.2744 
 142   0.0000       2.564975        69.7965 
 143   0.0000       2.599191        70.7276 
 144   0.0000       2.611011        71.0492 
 145   0.0000       2.632220        71.6264 
 146   0.0000       2.634604        71.6912 
 147   0.0000       2.657666        72.3188 
 148   0.0000       2.664220        72.4971 
 149   0.0000       2.673739        72.7561 
 150   0.0000       2.703130        73.5559 
 151   0.0000       2.750589        74.8473 
 152   0.0000       2.768930        75.3464 
 153   0.0000       2.779361        75.6302 
 154   0.0000       2.817009        76.6547 
 155   0.0000       2.838469        77.2387 
 156   0.0000       2.847403        77.4818 
 157   0.0000       2.873452        78.1906 
 158   0.0000       2.889847        78.6367 
 159   0.0000       2.921905        79.5091 
 160   0.0000       2.941837        80.0515 
 161   0.0000       2.945906        80.1622 
 162   0.0000       2.968345        80.7728 
 163   0.0000       3.007448        81.8368 
 164   0.0000       3.030204        82.4561 
 165   0.0000       3.040301        82.7308 
 166   0.0000       3.096773        84.2675 
 167   0.0000       3.108066        84.5748 
 168   0.0000       3.154042        85.8258 
 169   0.0000       3.159972        85.9872 
 170   0.0000       3.265644        88.8627 
 171   0.0000       3.285583        89.4052 
 172   0.0000       3.305506        89.9474 
 173   0.0000       3.341746        90.9335 
 174   0.0000       3.359319        91.4117 
 175   0.0000       3.412664        92.8633 
 176   0.0000       3.418071        93.0104 
 177   0.0000       3.436809        93.5203 
 178   0.0000       3.458586        94.1129 
 179   0.0000       3.480795        94.7172 
 180   0.0000       3.511767        95.5600 
 181   0.0000       3.555099        96.7392 
 182   0.0000       3.563026        96.9549 
 183   0.0000       3.574978        97.2801 
 184   0.0000       3.699429       100.6666 
 185   0.0000       3.709875       100.9508 
 186   0.0000       3.721307       101.2619 
 187   0.0000       3.769915       102.5846 
 188   0.0000       3.857751       104.9747 
 189   0.0000       3.862240       105.0969 
 190   0.0000       3.873964       105.4159 
 191   0.0000       3.895920       106.0134 
 192   0.0000       3.907099       106.3176 
 193   0.0000       3.952215       107.5452 
 194   0.0000       3.982395       108.3665 
 195   0.0000       4.057361       110.4064 
 196   0.0000       4.070764       110.7711 
 197   0.0000       4.106675       111.7483 
 198   0.0000       4.207775       114.4994 
 199   0.0000       4.225531       114.9826 
 200   0.0000       4.252038       115.7038 
 201   0.0000       4.289926       116.7348 
 202   0.0000       4.323850       117.6579 
 203   0.0000       4.458418       121.3197 
 204   0.0000       4.483779       122.0098 
 205   0.0000       4.498429       122.4085 
 206   0.0000       4.605116       125.3116 
 207   0.0000       4.665687       126.9598 
 208   0.0000       4.825903       131.3195 
 209   0.0000       4.866035       132.4115 
 210   0.0000       4.939207       134.4027 
 211   0.0000       5.046587       137.3246 
 212   0.0000       5.051276       137.4522 
 213   0.0000       5.097262       138.7035 
 214   0.0000       5.112300       139.1128 
 215   0.0000       5.185123       141.0944 
 216   0.0000       5.189230       141.2061 
 217   0.0000       5.263154       143.2177 
 218   0.0000       5.300020       144.2209 
 219   0.0000       5.327012       144.9554 
 220   0.0000       5.420413       147.4969 
 221   0.0000       5.444247       148.1455 
 222   0.0000       5.471654       148.8913 
 223   0.0000       5.490674       149.4088 
 224   0.0000       5.516369       150.1080 
 225   0.0000       5.538108       150.6996 
 226   0.0000       5.548407       150.9798 
 227   0.0000       5.616830       152.8417 
 228   0.0000       5.671217       154.3217 
 229   0.0000       5.675463       154.4372 
 230   0.0000       5.720781       155.6704 
 231   0.0000       5.742042       156.2489 
 232   0.0000       5.800268       157.8333 
 233   0.0000       5.808764       158.0645 
 234   0.0000       5.843059       158.9977 
 235   0.0000       5.861412       159.4971 
 236   0.0000       5.871243       159.7647 
 237   0.0000       5.886048       160.1675 
 238   0.0000       5.889550       160.2628 
 239   0.0000       5.949660       161.8985 
 240   0.0000       5.990150       163.0003 
 241   0.0000       6.018602       163.7745 
 242   0.0000       6.025991       163.9756 
 243   0.0000       6.028930       164.0555 
 244   0.0000       6.058441       164.8586 
 245   0.0000       6.079896       165.4424 
 246   0.0000       6.102859       166.0672 
 247   0.0000       6.123155       166.6195 
 248   0.0000       6.126964       166.7232 
 249   0.0000       6.148650       167.3133 
 250   0.0000       6.160855       167.6454 
 251   0.0000       6.213443       169.0764 
 252   0.0000       6.230541       169.5416 
 253   0.0000       6.245546       169.9500 
 254   0.0000       6.259982       170.3428 
 255   0.0000       6.269663       170.6062 
 256   0.0000       6.276184       170.7836 
 257   0.0000       6.301437       171.4708 
 258   0.0000       6.317070       171.8962 
 259   0.0000       6.348127       172.7413 
 260   0.0000       6.357521       172.9969 
 261   0.0000       6.379198       173.5868 
 262   0.0000       6.406220       174.3221 
 263   0.0000       6.433842       175.0738 
 264   0.0000       6.455502       175.6631 
 265   0.0000       6.489110       176.5777 
 266   0.0000       6.503948       176.9814 
 267   0.0000       6.540748       177.9828 
 268   0.0000       6.586378       179.2245 
 269   0.0000       6.617134       180.0614 
 270   0.0000       6.654280       181.0722 
 271   0.0000       6.678947       181.7434 
 272   0.0000       6.713910       182.6948 
 273   0.0000       6.722265       182.9221 
 274   0.0000       6.760943       183.9746 
 275   0.0000       6.802778       185.1130 
 276   0.0000       6.870220       186.9482 
 277   0.0000       6.875144       187.0822 
 278   0.0000       6.884763       187.3439 
 279   0.0000       6.933399       188.6674 
 280   0.0000       6.991796       190.2565 
 281   0.0000       6.999658       190.4704 
 282   0.0000       7.071375       192.4219 
 283   0.0000       7.086825       192.8423 
 284   0.0000       7.137551       194.2226 
 285   0.0000       7.146525       194.4668 
 286   0.0000       7.279049       198.0730 
 287   0.0000       7.294963       198.5060 
 288   0.0000       7.370789       200.5694 
 289   0.0000       7.396610       201.2720 
 290   0.0000       7.405162       201.5047 
 291   0.0000       7.409754       201.6296 
 292   0.0000       7.442521       202.5213 
 293   0.0000       7.463177       203.0834 
 294   0.0000       7.496954       204.0025 
 295   0.0000       7.500709       204.1047 
 296   0.0000       7.528623       204.8642 
 297   0.0000       7.539148       205.1506 
 298   0.0000       7.568936       205.9612 
 299   0.0000       7.625830       207.5094 
 300   0.0000       7.660397       208.4500 
 301   0.0000       7.671180       208.7434 
 302   0.0000       7.684916       209.1172 
 303   0.0000       7.707393       209.7288 
 304   0.0000       7.711660       209.8449 
 305   0.0000       7.765120       211.2997 
 306   0.0000       7.773776       211.5352 
 307   0.0000       7.794340       212.0948 
 308   0.0000       7.811932       212.5735 
 309   0.0000       7.825393       212.9398 
 310   0.0000       7.896169       214.8657 
 311   0.0000       7.921782       215.5627 
 312   0.0000       7.962533       216.6715 
 313   0.0000       7.988691       217.3833 
 314   0.0000       7.999128       217.6673 
 315   0.0000       8.020865       218.2588 
 316   0.0000       8.056252       219.2218 
 317   0.0000       8.113596       220.7822 
 318   0.0000       8.219909       223.6751 
 319   0.0000       8.252900       224.5728 
 320   0.0000       8.260545       224.7808 
 321   0.0000       8.266087       224.9317 
 322   0.0000       8.325895       226.5591 
 323   0.0000       8.338647       226.9061 
 324   0.0000       8.344923       227.0769 
 325   0.0000       8.373409       227.8520 
 326   0.0000       8.390777       228.3246 
 327   0.0000       8.405277       228.7192 
 328   0.0000       8.414480       228.9696 
 329   0.0000       8.424646       229.2463 
 330   0.0000       8.442794       229.7401 
 331   0.0000       8.461245       230.2422 
 332   0.0000       8.477566       230.6863 
 333   0.0000       8.491684       231.0705 
 334   0.0000       8.504452       231.4179 
 335   0.0000       8.538725       232.3505 
 336   0.0000       8.617206       234.4861 
 337   0.0000       8.623406       234.6548 
 338   0.0000       8.646036       235.2706 
 339   0.0000       8.690724       236.4866 
 340   0.0000       8.731699       237.6016 
 341   0.0000       8.776207       238.8127 
 342   0.0000       8.827738       240.2150 
 343   0.0000       8.867019       241.2839 
 344   0.0000       8.891139       241.9402 
 345   0.0000       8.918217       242.6770 
 346   0.0000       8.952456       243.6087 
 347   0.0000       8.962648       243.8861 
 348   0.0000       9.035565       245.8702 
 349   0.0000       9.055633       246.4163 
 350   0.0000       9.107211       247.8198 
 351   0.0000       9.283301       252.6115 
 352   0.0000       9.357460       254.6294 
 353   0.0000       9.370773       254.9917 
 354   0.0000       9.584537       260.8085 
 355   0.0000       9.628212       261.9970 
 356   0.0000       9.688454       263.6362 
 357   0.0000       9.741145       265.0700 
 358   0.0000       9.766044       265.7476 
 359   0.0000       9.770963       265.8814 
 360   0.0000       9.784797       266.2579 
 361   0.0000       9.799781       266.6656 
 362   0.0000       9.860374       268.3144 
 363   0.0000       9.912305       269.7275 
 364   0.0000       9.941788       270.5298 
 365   0.0000       9.973088       271.3815 
 366   0.0000       9.999004       272.0867 
 367   0.0000      10.045795       273.3600 
 368   0.0000      10.078911       274.2611 
 369   0.0000      10.112583       275.1774 
 370   0.0000      10.175472       276.8887 
 371   0.0000      10.193789       277.3871 
 372   0.0000      10.318909       280.7918 
 373   0.0000      10.370274       282.1895 
 374   0.0000      10.386402       282.6284 
 375   0.0000      10.546042       286.9724 
 376   0.0000      10.631743       289.3044 
 377   0.0000      10.776087       293.2322 
 378   0.0000      10.894636       296.4581 
 379   0.0000      11.203678       304.8676 
 380   0.0000      11.496694       312.8410 
 381   0.0000      11.551869       314.3423 
 382   0.0000      11.573724       314.9371 
 383   0.0000      11.703050       318.4562 
 384   0.0000      11.783407       320.6428 
 385   0.0000      11.957639       325.3839 
 386   0.0000      12.004630       326.6626 
 387   0.0000      12.099561       329.2458 
 388   0.0000      12.124750       329.9312 
 389   0.0000      12.419502       337.9518 
 390   0.0000      12.598745       342.8293 
 391   0.0000      12.696191       345.4809 
 392   0.0000      12.773231       347.5773 
 393   0.0000      12.821855       348.9004 
 394   0.0000      12.910538       351.3136 
 395   0.0000      13.080900       355.9494 
 396   0.0000      13.299091       361.8867 
 397   0.0000      13.630521       370.9053 
 398   0.0000      13.866112       377.3161 
 399   0.0000      14.807185       402.9240 
 400   0.0000      28.522144       776.1270 
 401   0.0000      29.159998       793.4839 
 402   0.0000      29.441962       801.1565 
 403   0.0000      48.688027      1324.8686 
 404   0.0000     148.011206      4027.5897 
 405   0.0000     148.684790      4045.9188 
 406   0.0000     148.966668      4053.5891 
 407   0.0000     254.366707      6921.6700 
Total SCF time: 0 days 0 hours 0 min 18 sec 

Maximum memory used throughout the entire SCF-calculation: 86.6 MB


           ************************************************************
           *        Program running with 8 parallel MPI-processes     *
           *              working on a common directory               *
           ************************************************************

------------------------------------------------------------------------------
                                ORCA  MP2 
------------------------------------------------------------------------------

Freezing NCore=8 chemical core electrons

   <<< Use J-auxbasis for calculation of Separable RI-J derivative contributions (Dim=262) >>> 


-------------
RI-MP2 ENERGY
-------------
Dimension of the basis                    ...  408
Memory devoted to MP2                     ... 20000 MB   
Data format for buffers                   ... DOUBLE
Compression type for matrix containers    ... UNCOMPRESSED
Scaling for aa/bb pairs                   ...   0.000e+00
Scaling for ab pairs                      ...   1.000e+00
Overall scaling of the MP2 energy         ...   2.690e-01
Calculating two index integrals           ... done (    0.005 sec)
Cholesky decomposition of V**-1           ... done (    0.066 sec)

-----------------
RI-TRANSFORMATION (AUX index driven)
-----------------

Dimension of the orbital-basis         ... 408
Dimension of the aux-basis             ... 900
Transformation of internal/external MOs...    4-  15 to   16- 407
Number Format for Storage              ... Double (8 Byte)
Integral mode                          ... Direct

First Phase: integral generation and transformation of MO indices
  Aux angular momentum 0               ... done (    0.023 sec)
  Aux angular momentum 1               ... done (    0.045 sec)
  Aux angular momentum 2               ... done (    0.055 sec)
  Aux angular momentum 3               ... done (    0.055 sec)
  Aux angular momentum 4               ... done (    0.053 sec)
  Aux angular momentum 5               ... done (    0.027 sec)
Closing buffer VIA ( 0.03 GB; CompressionRatio= 1.00)
  Phase 1 completed in     0.412 sec
Second Phase: sorting and transformation of aux index

IA-Transformation
Memory available                       ... 19950 MB 
Max. # MO pairs treated in a batch     ... 2    
# of internal orbitals                 ... 12
# batches for internal orbitals        ... 1
Closing buffer IAV ( 0.03 GB; CompressionRatio= 1.00)
(ia|v) transformation done in     0.049 sec

  Phase 2 completed in     0.053 sec
RI-Integral transformation completed in     0.465 sec
Opening buffers                              ... done

Starting loop over batches of integrals:

Operator 0  - window                       ... (  4- 15)x( 16-407)
Operator 0  - Memory available             ... 20000 MB
Operator 0  - Memory needed per MO         ...   2.7 MB
Operator 0  - Number of orbitals per batch ... 2
Operator 0  - Number of batches            ... 1

OPERATOR  0   PASS   0:  MOs     4 ...    5 +    6 ...    7 +    8 ...    9 +   10 ...   11
                            +   12 ...   13 +   14 ...   15
  Reading integrals       ... ok
Time spent in pair loops =     0.027 sec
Deleting buffer (Ka|jb)[aa] ...done

-----------------------------------------------
 RI-MP2 CORRELATION ENERGY:     -0.200259338 Eh
-----------------------------------------------


-------
TIMINGS
-------

Total time                :    0.745 sec
Integral trafo            :    0.476 sec ( 63.9%)
I/O of integrals          :    0.003 sec (  0.4%)
K(i,j) Operators          :    0.019 sec (  2.6%)
T(i,j) pair energies      :    0.002 sec (  0.2%)
V-calculation             :    0.005 sec (  0.7%)
V**(-1/2)                 :    0.066 sec (  8.9%)
Gamma(ia|P)               :    0.000 sec (  0.0%)
Gamma-Trafo               :    0.000 sec (  0.0%)
D(virtual)                :    0.000 sec (  0.0%)
D(internal)               :    0.000 sec (  0.0%)
W(virtual)                :    0.000 sec (  0.0%)
W(internal)               :    0.000 sec (  0.0%)
L(virtual)                :    0.000 sec (  0.0%)
L(internal)               :    0.000 sec (  0.0%)
G(D)                      :    0.000 sec (  0.0%)
G(Z)                      :    0.000 sec (  0.0%)
Z-Vector Solution         :    0.000 sec (  0.0%)
3-Index Derivative        :    0.000 sec (  0.0%)
2-Index Derivative        :    0.000 sec (  0.0%)
Separable Gradient (RIJ)  :    0.000 sec (  0.0%)
Separable Gradient (COSX) :    0.000 sec (  0.0%)


---------------------------------------
MP2 TOTAL ENERGY:     -193.066505222 Eh
---------------------------------------

Maximum memory used throughout the entire MP2-calculation: 107.7 MB


-------------------------------------------------------------------------------
                          DFT DISPERSION CORRECTION                            
                                                                               
                              DFTD3 V3.1  Rev 1                                
                          USING Becke-Johnson damping                          
-------------------------------------------------------------------------------
-------------------------   ----------------
Dispersion correction           -0.001735574
-------------------------   ----------------


-------------------------   --------------------
FINAL SINGLE POINT ENERGY      -193.068240796781
-------------------------   --------------------


                            ***************************************
                            *     ORCA property calculations      *
                            ***************************************


  WARNING: The energy has been calculated at the MP2 level but the densities
           used in the property calculations are still SCF densities
           MP2 response densities have not been calculated 
           use %mp2 Density relaxed end
           or  %mp2 Density unrelaxed end

                                    ---------------------
                                    Active property flags
                                    ---------------------
   (+) Dipole Moment


------------------------------------------------------------------------------
                       ORCA ELECTRIC PROPERTIES CALCULATION
------------------------------------------------------------------------------

Dipole Moment Calculation                       ... on
Quadrupole Moment Calculation                   ... off
Polarizability Calculation                      ... off
GBWName                                         ... reaction1_react_SP.gbw
Electron density                                ... reaction1_react_SP.scfp
The origin for moment calculation is the CENTER OF MASS  = ( 0.033698, -0.054049 -0.004736)

-------------
DIPOLE MOMENT
-------------
                                X             Y             Z
Electronic contribution:      0.59131      -1.24553      -0.12944
Nuclear contribution   :     -1.07834       1.72958       0.15155
                        -----------------------------------------
Total Dipole Moment    :     -0.48704       0.48405       0.02211
                        -----------------------------------------
Magnitude (a.u.)       :      0.68702
Magnitude (Debye)      :      1.74627



--------------------
Rotational spectrum 
--------------------
 
Rotational constants in cm-1:     1.341201     0.149977     0.138582 
Rotational constants in MHz : 40208.183358  4496.188923  4154.570492 

 Dipole components along the rotational axes: 
x,y,z [a.u.] :    -0.481340     0.489947     0.016123 
x,y,z [Debye]:    -1.223469     1.245346     0.040981 

 

Timings for individual modules:

Sum of individual times         ...       20.190 sec (=   0.337 min)
GTO integral calculation        ...        0.500 sec (=   0.008 min)   2.5 %
SCF iterations                  ...       18.724 sec (=   0.312 min)  92.7 %
MP2 module                      ...        0.966 sec (=   0.016 min)   4.8 %
                             ****ORCA TERMINATED NORMALLY****
TOTAL RUN TIME: 0 days 0 hours 0 minutes 20 seconds 466 msec
