 Entering Gaussian System, Link 0=g16
 Initial command:
 /sob/g16/l1.exe "/sob2/gauscr/Gau-2615.inp" -scrdir="/sob2/gauscr/"
 Default is to use a total of  36 processors:
                               36 via shared-memory
                                1 via Linda
 Entering Link 1 = /sob/g16/l1.exe PID=      2617.
  
 Copyright (c) 1988,1990,1992,1993,1995,1998,2003,2009,2016,
            Gaussian, Inc.  All Rights Reserved.
  
 This is part of the Gaussian(R) 16 program.  It is based on
 the Gaussian(R) 09 system (copyright 2009, Gaussian, Inc.),
 the Gaussian(R) 03 system (copyright 2003, Gaussian, Inc.),
 the Gaussian(R) 98 system (copyright 1998, Gaussian, Inc.),
 the Gaussian(R) 94 system (copyright 1995, Gaussian, Inc.),
 the Gaussian 92(TM) system (copyright 1992, Gaussian, Inc.),
 the Gaussian 90(TM) system (copyright 1990, Gaussian, Inc.),
 the Gaussian 88(TM) system (copyright 1988, Gaussian, Inc.),
 the Gaussian 86(TM) system (copyright 1986, Carnegie Mellon
 University), and the Gaussian 82(TM) system (copyright 1983,
 Carnegie Mellon University). Gaussian is a federally registered
 trademark of Gaussian, Inc.
  
 This software contains proprietary and confidential information,
 including trade secrets, belonging to Gaussian, Inc.
  
 This software is provided under written license and may be
 used, copied, transmitted, or stored only in accord with that
 written license.
  
 The following legend is applicable only to US Government
 contracts under FAR:
  
                    RESTRICTED RIGHTS LEGEND
  
 Use, reproduction and disclosure by the US Government is
 subject to restrictions as set forth in subparagraphs (a)
 and (c) of the Commercial Computer Software - Restricted
 Rights clause in FAR 52.227-19.
  
 Gaussian, Inc.
 340 Quinnipiac St., Bldg. 40, Wallingford CT 06492
  
  
 ---------------------------------------------------------------
 Warning -- This program may not be used in any manner that
 competes with the business of Gaussian, Inc. or will provide
 assistance to any competitor of Gaussian, Inc.  The licensee
 of this program is prohibited from giving any competitor of
 Gaussian, Inc. access to this program.  By using this program,
 the user acknowledges that Gaussian, Inc. is engaged in the
 business of creating and licensing software in the field of
 computational chemistry and represents and warrants to the
 licensee that it is not a competitor of Gaussian, Inc. and that
 it will not use this program in any manner prohibited above.
 ---------------------------------------------------------------
  

 Cite this work as:
 Gaussian 16, Revision A.03,
 M. J. Frisch, G. W. Trucks, H. B. Schlegel, G. E. Scuseria, 
 M. A. Robb, J. R. Cheeseman, G. Scalmani, V. Barone, 
 G. A. Petersson, H. Nakatsuji, X. Li, M. Caricato, A. V. Marenich, 
 J. Bloino, B. G. Janesko, R. Gomperts, B. Mennucci, H. P. Hratchian, 
 J. V. Ortiz, A. F. Izmaylov, J. L. Sonnenberg, D. Williams-Young, 
 F. Ding, F. Lipparini, F. Egidi, J. Goings, B. Peng, A. Petrone, 
 T. Henderson, D. Ranasinghe, V. G. Zakrzewski, J. Gao, N. Rega, 
 G. Zheng, W. Liang, M. Hada, M. Ehara, K. Toyota, R. Fukuda, 
 J. Hasegawa, M. Ishida, T. Nakajima, Y. Honda, O. Kitao, H. Nakai, 
 T. Vreven, K. Throssell, J. A. Montgomery, Jr., J. E. Peralta, 
 F. Ogliaro, M. J. Bearpark, J. J. Heyd, E. N. Brothers, K. N. Kudin, 
 V. N. Staroverov, T. A. Keith, R. Kobayashi, J. Normand, 
 K. Raghavachari, A. P. Rendell, J. C. Burant, S. S. Iyengar, 
 J. Tomasi, M. Cossi, J. M. Millam, M. Klene, C. Adamo, R. Cammi, 
 J. W. Ochterski, R. L. Martin, K. Morokuma, O. Farkas, 
 J. B. Foresman, and D. J. Fox, Gaussian, Inc., Wallingford CT, 2016.
 
 ******************************************
 Gaussian 16:  ES64L-G16RevA.03 25-Dec-2016
                11-May-2020 
 ******************************************
 -----------------
 # CCSD(T)/cc-pVQZ
 -----------------
 1/38=1,172=1/1;
 2/12=2,17=6,18=5,40=1/2;
 3/5=16,6=2,11=9,25=1,30=1/1,2,3;
 4//1;
 5/5=2,38=5/2;
 8/6=4,9=120000,10=1/1,4;
 9/5=7,14=2/13;
 6/7=2,8=2,9=2,10=2/1;
 99/5=1,9=1/99;
 ----
 test
 ----
 Symbolic Z-matrix:
 Charge =  0 Multiplicity = 2
 C                    -0.01024  -0.69214   0. 
 H                    -0.50538  -1.09591   0.88285 
 H                     1.00845  -1.10035   0. 
 H                    -0.50538  -1.09591  -0.88285 
 C                    -0.01024   0.79256   0. 
 H                     0.06256   1.34482  -0.92323 
 H                     0.06256   1.34482   0.92323 
 
                          Input orientation:                          
 ---------------------------------------------------------------------
 Center     Atomic      Atomic             Coordinates (Angstroms)
 Number     Number       Type             X           Y           Z
 ---------------------------------------------------------------------
      1          6           0       -0.010235   -0.692137    0.000000
      2          1           0       -0.505376   -1.095913    0.882849
      3          1           0        1.008446   -1.100354    0.000000
      4          1           0       -0.505376   -1.095913   -0.882849
      5          6           0       -0.010235    0.792559    0.000000
      6          1           0        0.062561    1.344822   -0.923232
      7          1           0        0.062561    1.344822    0.923232
 ---------------------------------------------------------------------
                    Distance matrix (angstroms):
                    1          2          3          4          5
     1  C    0.000000
     2  H    1.089781   0.000000
     3  H    1.097430   1.752455   0.000000
     4  H    1.089781   1.765698   1.752455   0.000000
     5  C    1.484696   2.142642   2.149612   2.142642   0.000000
     6  H    2.237601   3.088959   2.779558   2.506266   1.078263
     7  H    2.237601   2.506266   2.779558   3.088959   1.078263
                    6          7
     6  H    0.000000
     7  H    1.846464   0.000000
 Stoichiometry    C2H5(2)
 Framework group  CS[SG(C2H),X(H4)]
 Deg. of freedom     9
 Full point group                 CS      NOp   2
 Largest Abelian subgroup         CS      NOp   2
 Largest concise Abelian subgroup CS      NOp   2
                         Standard orientation:                         
 ---------------------------------------------------------------------
 Center     Atomic      Atomic             Coordinates (Angstroms)
 Number     Number       Type             X           Y           Z
 ---------------------------------------------------------------------
      1          6           0       -0.010235   -0.692137    0.000000
      2          1           0       -0.505376   -1.095913    0.882849
      3          1           0        1.008446   -1.100354    0.000000
      4          1           0       -0.505376   -1.095913   -0.882849
      5          6           0       -0.010235    0.792559   -0.000000
      6          1           0        0.062561    1.344822   -0.923232
      7          1           0        0.062561    1.344822    0.923232
 ---------------------------------------------------------------------
 Rotational constants (GHZ):         104.4731213          22.8572273          21.1889746
 Standard basis: CC-pVQZ (5D, 7F)
 There are   186 symmetry adapted cartesian basis functions of A'  symmetry.
 There are   129 symmetry adapted cartesian basis functions of A"  symmetry.
 There are   150 symmetry adapted basis functions of A'  symmetry.
 There are   110 symmetry adapted basis functions of A"  symmetry.
   260 basis functions,   363 primitive gaussians,   315 cartesian basis functions
     9 alpha electrons        8 beta electrons
       nuclear repulsion energy        37.0550761810 Hartrees.
 NAtoms=    7 NActive=    7 NUniq=    5 SFac= 1.96D+00 NAtFMM=   60 NAOKFM=F Big=F
 Integral buffers will be    131072 words long.
 Raffenetti 2 integral format.
 Two-electron integral symmetry is turned on.
 One-electron integrals computed using PRISM.
 NBasis=   260 RedAO= T EigKep=  1.35D-04  NBF=   150   110
 NBsUse=   260 1.00D-06 EigRej= -1.00D+00 NBFU=   150   110
 ExpMin= 8.99D-02 ExpMax= 3.40D+04 ExpMxC= 3.27D+02 IAcc=3 IRadAn=         5 AccDes= 0.00D+00
 Harris functional with IExCor=  205 and IRadAn=       5 diagonalized for initial guess.
 HarFok:  IExCor=  205 AccDes= 0.00D+00 IRadAn=         5 IDoV= 1 UseB2=F ITyADJ=14
 ICtDFT=  3500011 ScaDFX=  1.000000  1.000000  1.000000  1.000000
 FoFCou: FMM=F IPFlag=           0 FMFlag=      100000 FMFlg1=           0
         NFxFlg=           0 DoJE=T BraDBF=F KetDBF=T FulRan=T
         wScrn=  0.000000 ICntrl=       500 IOpCl=  0 I1Cent=   200000004 NGrid=           0
         NMat0=    1 NMatS0=      1 NMatT0=    0 NMatD0=    1 NMtDS0=    0 NMtDT0=    0
 Petite list used in FoFCou.
 Initial guess orbital symmetries:
 Alpha Orbitals:
       Occupied  (A') (A') (A') (A') (A") (A') (A') (A") (A')
       Virtual   (A') (A') (A") (A') (A") (A') (A') (A") (A') (A')
                 (A") (A') (A') (A") (A') (A') (A') (A") (A') (A")
                 (A') (A") (A') (A") (A') (A") (A') (A") (A') (A')
                 (A') (A") (A') (A") (A') (A") (A') (A') (A") (A')
                 (A') (A") (A') (A") (A') (A') (A") (A') (A') (A")
                 (A') (A") (A') (A") (A') (A") (A') (A') (A") (A')
                 (A') (A") (A') (A") (A") (A") (A') (A") (A') (A')
                 (A') (A") (A') (A") (A") (A') (A') (A") (A') (A')
                 (A") (A') (A") (A') (A") (A') (A') (A") (A") (A')
                 (A') (A') (A') (A") (A") (A') (A") (A') (A") (A')
                 (A') (A") (A') (A") (A') (A') (A") (A") (A') (A")
                 (A') (A") (A') (A') (A') (A") (A') (A') (A") (A')
                 (A") (A') (A") (A') (A') (A") (A') (A") (A') (A")
                 (A") (A') (A") (A') (A") (A') (A') (A") (A') (A')
                 (A") (A') (A") (A") (A') (A") (A") (A") (A') (A')
                 (A") (A') (A') (A") (A') (A') (A") (A') (A") (A')
                 (A") (A') (A') (A") (A') (A") (A') (A') (A") (A')
                 (A') (A") (A') (A") (A') (A") (A") (A') (A') (A")
                 (A') (A") (A') (A') (A") (A') (A') (A") (A") (A')
                 (A") (A') (A") (A') (A") (A') (A') (A") (A') (A')
                 (A") (A') (A') (A") (A') (A") (A') (A") (A') (A")
                 (A") (A') (A") (A') (A") (A") (A') (A') (A') (A')
                 (A") (A') (A") (A") (A') (A') (A") (A') (A") (A')
                 (A') (A") (A") (A') (A") (A') (A') (A") (A') (A')
                 (A") (A") (A') (A") (A') (A') (A') (A") (A") (A')
                 (A')
 Beta  Orbitals:
       Occupied  (A') (A') (A') (A') (A") (A') (A') (A")
       Virtual   (A') (A') (A') (A") (A') (A") (A') (A') (A") (A')
                 (A') (A") (A') (A') (A") (A') (A') (A') (A") (A')
                 (A") (A') (A") (A') (A") (A') (A") (A') (A") (A')
                 (A') (A') (A") (A') (A") (A') (A") (A') (A') (A")
                 (A') (A') (A") (A') (A") (A') (A') (A") (A') (A')
                 (A") (A') (A") (A') (A") (A') (A") (A') (A') (A")
                 (A') (A') (A") (A') (A") (A") (A") (A') (A") (A')
                 (A') (A') (A") (A') (A") (A") (A') (A') (A") (A')
                 (A') (A") (A') (A") (A') (A") (A') (A') (A") (A")
                 (A') (A') (A') (A') (A") (A") (A') (A") (A') (A")
                 (A') (A') (A") (A') (A") (A') (A') (A") (A") (A')
                 (A") (A') (A") (A') (A') (A') (A") (A') (A') (A")
                 (A') (A") (A') (A") (A') (A') (A") (A') (A") (A')
                 (A") (A") (A') (A") (A') (A") (A') (A') (A") (A')
                 (A') (A") (A') (A") (A") (A') (A") (A") (A") (A')
                 (A') (A") (A') (A') (A") (A') (A') (A") (A') (A")
                 (A') (A") (A') (A') (A") (A') (A") (A') (A') (A")
                 (A') (A') (A") (A') (A") (A') (A") (A") (A') (A')
                 (A") (A') (A") (A') (A') (A") (A') (A') (A") (A")
                 (A') (A") (A') (A") (A') (A") (A') (A') (A") (A')
                 (A') (A") (A') (A') (A") (A') (A") (A') (A") (A')
                 (A") (A") (A') (A") (A') (A") (A") (A') (A') (A')
                 (A') (A") (A') (A") (A") (A') (A') (A") (A') (A")
                 (A') (A') (A") (A") (A') (A") (A') (A') (A") (A')
                 (A') (A") (A") (A') (A") (A') (A') (A') (A") (A")
                 (A') (A')
 The electronic state of the initial guess is 2-A'.
 Initial guess <Sx>= 0.0000 <Sy>= 0.0000 <Sz>= 0.5000 <S**2>= 0.7500 S= 0.5000
 Keep R1 and R2 ints in memory in symmetry-blocked form, NReq=864205952.
 Requested convergence on RMS density matrix=1.00D-08 within 128 cycles.
 Requested convergence on MAX density matrix=1.00D-06.
 Requested convergence on             energy=1.00D-06.
 No special actions if energy rises.
 SCF Done:  E(UHF) =  -78.6332548919     A.U. after   13 cycles
            NFock= 13  Conv=0.46D-08     -V/T= 2.0005
 <Sx>= 0.0000 <Sy>= 0.0000 <Sz>= 0.5000 <S**2>= 0.7633 S= 0.5066
 <L.S>=  0.00000000000    
 Annihilation of the first spin contaminant:
 S**2 before annihilation     0.7633,   after     0.7501
 ExpMin= 8.99D-02 ExpMax= 3.40D+04 ExpMxC= 3.27D+02 IAcc=3 IRadAn=         5 AccDes= 0.00D+00
 HarFok:  IExCor=  205 AccDes= 0.00D+00 IRadAn=         5 IDoV=-2 UseB2=F ITyADJ=14
 ICtDFT= 12500011 ScaDFX=  1.000000  1.000000  1.000000  1.000000
 Range of M.O.s used for correlation:     3   260
 NBasis=   260 NAE=     9 NBE=     8 NFC=     2 NFV=     0
 NROrb=    258 NOA=     7 NOB=     6 NVA=   251 NVB=   252

 **** Warning!!: The largest alpha MO coefficient is  0.21191139D+02


 **** Warning!!: The largest beta MO coefficient is  0.20391142D+02

 Semi-Direct transformation.
 ModeAB=           4 MOrb=             7 LenV=   26841456957
 LASXX=     29485845 LTotXX=    29485845 LenRXX=    59353244
 LTotAB=    29867399 MaxLAS=    60450432 LenRXY=           0
 NonZer=    88839089 LenScr=   134042112 LnRSAI=    60450432
 LnScr1=    91422720 LExtra=           0 Total=    345268508
 MaxDsk=          -1 SrtSym=           T ITran=            4
 JobTyp=1 Pass  1:  I=   1 to   7.
 (rs|ai) integrals will be sorted in core.
 ModeAB=           4 MOrb=             6 LenV=   26841456957
 LASXX=     25322014 LTotXX=    25322014 LenRXX=    49591756
 LTotAB=    24269742 MaxLAS=    51814656 LenRXY=           0
 NonZer=    74913770 LenScr=   113141760 LnRSAI=    51814656
 LnScr1=    78498816 LExtra=           0 Total=    293046988
 MaxDsk=          -1 SrtSym=           T ITran=            4
 JobTyp=2 Pass  1:  I=   1 to   6.
 (rs|ai) integrals will be sorted in core.
 Spin components of T(2) and E(2):
     alpha-alpha T2 =       0.1401060433D-01 E2=     -0.4260677331D-01
     alpha-beta  T2 =       0.8095057342D-01 E2=     -0.2805807213D+00
     beta-beta   T2 =       0.9330395851D-02 E2=     -0.2823629956D-01
 ANorm=    0.1050852784D+01
 E2 =    -0.3514237942D+00 EUMP2 =    -0.78984678686036D+02
 (S**2,0)=  0.76331D+00           (S**2,1)=  0.75348D+00
 E(PUHF)=      -0.78636750148D+02        E(PMP2)=      -0.78986890242D+02
 Keep R2 and R3 ints in memory in symmetry-blocked form, NReq=864215500.
 CIDS: In Core Option IDoMem=           1.
 Iterations=  50 Convergence= 0.100D-06
 Produce multiple copies of IABC intergrals
 Iteration Nr.   1
 **********************
 DD1Dir will call FoFMem   1 times, MxPair=       120
 NAB=    42 NAA=    21 NBB=    15.
 E(PMP3)=      -0.79011244622D+02
 MP4(R+Q)=  0.78845036D-02
 E3=       -0.25311348D-01        EUMP3=      -0.79009990034D+02
 E4(DQ)=    0.83210996D-04        UMP4(DQ)=   -0.79009906823D+02
 E4(SDQ)=  -0.20280774D-02        UMP4(SDQ)=  -0.79012018112D+02
 DE(Corr)= -0.36874527     E(Corr)=     -79.002000162    
 NORM(A)=   0.10591236D+01
 Iteration Nr.   2
 **********************
 DD1Dir will call FoFMem   1 times, MxPair=       120
 NAB=    42 NAA=    21 NBB=    15.
 DE(Corr)= -0.37681154     E(CORR)=     -79.010066434     Delta=-8.07D-03
 NORM(A)=   0.10633835D+01
 Iteration Nr.   3
 **********************
 DD1Dir will call FoFMem   1 times, MxPair=       120
 NAB=    42 NAA=    21 NBB=    15.
 DE(Corr)= -0.37845058     E(CORR)=     -79.011705474     Delta=-1.64D-03
 NORM(A)=   0.10643681D+01
 Iteration Nr.   4
 **********************
 DD1Dir will call FoFMem   1 times, MxPair=       120
 NAB=    42 NAA=    21 NBB=    15.
 DE(Corr)= -0.37911774     E(CORR)=     -79.012372633     Delta=-6.67D-04
 NORM(A)=   0.10646660D+01
 Iteration Nr.   5
 **********************
 DD1Dir will call FoFMem   1 times, MxPair=       120
 NAB=    42 NAA=    21 NBB=    15.
 DE(Corr)= -0.37920332     E(CORR)=     -79.012458215     Delta=-8.56D-05
 NORM(A)=   0.10647379D+01
 Iteration Nr.   6
 **********************
 DD1Dir will call FoFMem   1 times, MxPair=       120
 NAB=    42 NAA=    21 NBB=    15.
 DE(Corr)= -0.37921523     E(CORR)=     -79.012470122     Delta=-1.19D-05
 NORM(A)=   0.10647380D+01
 Iteration Nr.   7
 **********************
 DD1Dir will call FoFMem   1 times, MxPair=       120
 NAB=    42 NAA=    21 NBB=    15.
 DE(Corr)= -0.37921439     E(CORR)=     -79.012469285     Delta= 8.37D-07
 NORM(A)=   0.10647435D+01
 Iteration Nr.   8
 **********************
 DD1Dir will call FoFMem   1 times, MxPair=       120
 NAB=    42 NAA=    21 NBB=    15.
 DE(Corr)= -0.37921393     E(CORR)=     -79.012468818     Delta= 4.67D-07
 NORM(A)=   0.10647441D+01
 Iteration Nr.   9
 **********************
 DD1Dir will call FoFMem   1 times, MxPair=       120
 NAB=    42 NAA=    21 NBB=    15.
 DE(Corr)= -0.37921466     E(CORR)=     -79.012469557     Delta=-7.39D-07
 NORM(A)=   0.10647448D+01
 Iteration Nr.  10
 **********************
 DD1Dir will call FoFMem   1 times, MxPair=       120
 NAB=    42 NAA=    21 NBB=    15.
 DE(Corr)= -0.37921465     E(CORR)=     -79.012469545     Delta= 1.20D-08
 NORM(A)=   0.10647449D+01
 Wavefunction amplitudes converged. E(Corr)=     -79.012469545    
 Largest amplitude= 2.83D-02
 Time for triples=     9216.38 seconds.
 T4(CCSD)= -0.13584970D-01
 T5(CCSD)=  0.35081856D-03
 CCSD(T)= -0.79025703696D+02

 S**2, projected HF & approx projected MPn energies after annihilation of
 unwanted spin states (see manual for definitions):

 spins       (S**2,0) (S**2,1)    PUHF        PMP2        PMP3        PMP4
 annihilated
 s+1         0.74993  0.75003  -78.636750  -78.986890  -79.011245
 s+1,s+2     0.75000  0.75000  -78.636737  -78.986878  -79.011233
 s+1 to s+3  0.75000  0.75000  -78.636737  -78.986878  -79.011233
 s+1 to s+4  0.75000  0.75000  -78.636737  -78.986878  -79.011233
 s+1 to s+5  0.75000  0.75000  -78.636737
 s+1 to s+6  0.75000  0.75000  -78.636737

 Discarding MO integrals.

 **********************************************************************

            Population analysis using the SCF density.

 **********************************************************************

 Orbital symmetries:
 Alpha Orbitals:
       Occupied  (A') (A') (A') (A') (A") (A') (A') (A") (A')
       Virtual   (A') (A') (A") (A') (A") (A') (A') (A") (A') (A')
                 (A") (A') (A') (A") (A') (A') (A') (A") (A") (A')
                 (A') (A") (A") (A') (A') (A") (A") (A') (A') (A')
                 (A") (A') (A') (A") (A') (A") (A') (A') (A") (A')
                 (A") (A') (A') (A") (A') (A') (A") (A') (A') (A")
                 (A') (A") (A') (A") (A') (A") (A') (A") (A') (A')
                 (A') (A") (A") (A') (A") (A") (A') (A") (A') (A')
                 (A') (A") (A") (A') (A") (A') (A') (A") (A') (A')
                 (A") (A') (A") (A') (A") (A') (A") (A') (A") (A')
                 (A') (A') (A") (A') (A") (A') (A") (A') (A") (A')
                 (A') (A") (A') (A") (A') (A") (A') (A') (A") (A")
                 (A') (A") (A') (A') (A') (A") (A') (A') (A") (A')
                 (A") (A') (A") (A') (A') (A') (A") (A") (A') (A")
                 (A") (A") (A') (A") (A') (A') (A') (A") (A') (A')
                 (A") (A') (A") (A") (A") (A") (A') (A') (A") (A')
                 (A') (A") (A') (A") (A') (A') (A") (A') (A') (A")
                 (A") (A') (A') (A") (A') (A") (A') (A') (A') (A")
                 (A') (A") (A') (A") (A") (A') (A") (A') (A') (A")
                 (A") (A') (A') (A') (A") (A') (A') (A") (A") (A")
                 (A') (A') (A") (A') (A') (A") (A') (A") (A') (A')
                 (A") (A') (A') (A") (A') (A") (A') (A") (A') (A")
                 (A") (A') (A") (A') (A") (A") (A') (A') (A') (A')
                 (A") (A") (A') (A') (A") (A') (A") (A') (A") (A')
                 (A') (A") (A") (A') (A") (A') (A') (A") (A') (A')
                 (A") (A") (A') (A") (A') (A') (A') (A") (A") (A')
                 (A')
 Beta  Orbitals:
       Occupied  (A') (A') (A') (A') (A") (A') (A') (A")
       Virtual   (A') (A') (A') (A") (A') (A") (A') (A') (A") (A')
                 (A") (A') (A') (A") (A') (A') (A') (A') (A") (A')
                 (A") (A') (A") (A") (A') (A") (A') (A") (A') (A')
                 (A') (A") (A') (A') (A") (A') (A") (A') (A') (A")
                 (A') (A") (A') (A') (A") (A') (A') (A") (A') (A')
                 (A") (A') (A") (A') (A") (A') (A") (A') (A") (A')
                 (A') (A') (A") (A') (A") (A") (A") (A') (A") (A')
                 (A') (A') (A") (A") (A') (A") (A') (A') (A") (A')
                 (A') (A") (A') (A") (A') (A") (A') (A") (A') (A")
                 (A') (A') (A') (A") (A') (A") (A') (A") (A') (A")
                 (A') (A') (A") (A') (A") (A') (A") (A') (A') (A")
                 (A") (A') (A") (A') (A') (A') (A") (A') (A') (A")
                 (A') (A") (A') (A") (A') (A') (A") (A') (A") (A')
                 (A") (A") (A") (A') (A") (A') (A') (A') (A") (A')
                 (A') (A") (A") (A') (A") (A") (A") (A') (A") (A')
                 (A') (A") (A') (A') (A") (A') (A') (A") (A") (A')
                 (A') (A") (A') (A') (A") (A") (A') (A') (A') (A')
                 (A") (A') (A") (A') (A") (A") (A') (A") (A') (A')
                 (A") (A") (A') (A') (A') (A") (A') (A') (A") (A")
                 (A") (A') (A') (A") (A') (A') (A") (A') (A") (A')
                 (A') (A") (A') (A') (A") (A') (A") (A') (A") (A')
                 (A") (A") (A') (A") (A') (A") (A") (A') (A') (A')
                 (A') (A") (A") (A') (A') (A") (A') (A") (A') (A")
                 (A') (A') (A") (A") (A') (A") (A') (A') (A") (A')
                 (A') (A") (A") (A') (A") (A') (A') (A') (A") (A")
                 (A') (A')
 The electronic state is 2-A'.
 Alpha  occ. eigenvalues --  -11.22628 -11.21525  -1.03057  -0.84047  -0.61895
 Alpha  occ. eigenvalues --   -0.57677  -0.54292  -0.50473  -0.34929
 Alpha virt. eigenvalues --    0.12022   0.14929   0.16967   0.18941   0.21019
 Alpha virt. eigenvalues --    0.27225   0.28500   0.30094   0.32378   0.34635
 Alpha virt. eigenvalues --    0.39827   0.43080   0.48362   0.48744   0.50149
 Alpha virt. eigenvalues --    0.52493   0.57363   0.57854   0.59929   0.59960
 Alpha virt. eigenvalues --    0.67292   0.76974   0.79828   0.80157   0.86359
 Alpha virt. eigenvalues --    0.86804   0.87922   0.87964   0.90934   0.92585
 Alpha virt. eigenvalues --    0.95124   0.99535   1.00860   1.04287   1.06378
 Alpha virt. eigenvalues --    1.13266   1.13936   1.17497   1.18857   1.19019
 Alpha virt. eigenvalues --    1.19867   1.20264   1.22702   1.27059   1.45450
 Alpha virt. eigenvalues --    1.53574   1.59398   1.63629   1.66424   1.74356
 Alpha virt. eigenvalues --    1.80767   1.81978   1.89758   1.92760   1.95388
 Alpha virt. eigenvalues --    1.96017   1.98458   2.01859   2.04017   2.06636
 Alpha virt. eigenvalues --    2.09739   2.11522   2.13373   2.13815   2.15189
 Alpha virt. eigenvalues --    2.22219   2.24663   2.28193   2.29349   2.33949
 Alpha virt. eigenvalues --    2.36275   2.39900   2.44939   2.46847   2.49252
 Alpha virt. eigenvalues --    2.52905   2.58089   2.61372   2.62248   2.64601
 Alpha virt. eigenvalues --    2.64807   2.71156   2.73251   2.76068   2.77218
 Alpha virt. eigenvalues --    2.78140   2.82250   2.82709   2.89505   2.92081
 Alpha virt. eigenvalues --    2.98268   3.08406   3.13931   3.15882   3.19722
 Alpha virt. eigenvalues --    3.22769   3.23130   3.23741   3.33287   3.38168
 Alpha virt. eigenvalues --    3.43638   3.48028   3.49767   3.51688   3.55639
 Alpha virt. eigenvalues --    3.69841   3.71681   3.76929   3.79133   3.81580
 Alpha virt. eigenvalues --    3.84830   3.86450   3.94776   3.96284   4.03230
 Alpha virt. eigenvalues --    4.09870   4.15340   4.17481   4.20203   4.25668
 Alpha virt. eigenvalues --    4.52769   5.29905   5.34650   5.41731   5.49093
 Alpha virt. eigenvalues --    5.53678   5.54138   5.64262   5.70906   5.72968
 Alpha virt. eigenvalues --    5.73853   5.77221   5.79008   5.88236   5.90965
 Alpha virt. eigenvalues --    5.94210   5.98837   6.11666   6.13885   6.16144
 Alpha virt. eigenvalues --    6.20146   6.20493   6.21137   6.25348   6.27620
 Alpha virt. eigenvalues --    6.30182   6.34560   6.38942   6.39162   6.40490
 Alpha virt. eigenvalues --    6.41625   6.41994   6.45343   6.47868   6.50562
 Alpha virt. eigenvalues --    6.59655   6.60486   6.61796   6.62219   6.62245
 Alpha virt. eigenvalues --    6.67934   6.75562   6.78160   6.81235   6.85533
 Alpha virt. eigenvalues --    6.85733   6.94841   6.99218   7.05198   7.07891
 Alpha virt. eigenvalues --    7.16447   7.20015   7.28135   7.29325   7.41896
 Alpha virt. eigenvalues --    7.47375   7.61575   7.61599   7.68336   7.74470
 Alpha virt. eigenvalues --    7.80454   7.81604   7.82384   7.86312   7.90638
 Alpha virt. eigenvalues --    7.91111   7.92506   7.94515   7.99104   8.02361
 Alpha virt. eigenvalues --    8.04746   8.07073   8.09801   8.11280   8.17094
 Alpha virt. eigenvalues --    8.18503   8.29613   8.33888   8.40906   8.43743
 Alpha virt. eigenvalues --    8.45797   8.50341   8.56427   8.56806   8.63140
 Alpha virt. eigenvalues --    8.69443   8.69606   8.74145   8.75245   8.77641
 Alpha virt. eigenvalues --    8.80691   8.84932   8.86728   8.94056   8.94462
 Alpha virt. eigenvalues --    9.00903   9.06053   9.12518   9.18428   9.32063
 Alpha virt. eigenvalues --    9.32302   9.33593   9.37352   9.38431   9.39189
 Alpha virt. eigenvalues --    9.50246   9.51892   9.62081   9.82926  10.17581
 Alpha virt. eigenvalues --   10.18823  10.20619  10.34380  10.38807  10.43550
 Alpha virt. eigenvalues --   10.44283  10.47551  10.49559  10.62323  10.70691
 Alpha virt. eigenvalues --   10.77019  10.96106  11.07328  11.20716  11.53900
 Alpha virt. eigenvalues --   11.89232  12.81584  12.83336  12.99341  25.25153
 Alpha virt. eigenvalues --   27.16779
  Beta  occ. eigenvalues --  -11.21839 -11.20262  -0.99439  -0.78724  -0.60878
  Beta  occ. eigenvalues --   -0.54475  -0.53086  -0.49909
  Beta virt. eigenvalues --    0.12224   0.12762   0.15533   0.17141   0.19121
  Beta virt. eigenvalues --    0.21188   0.27578   0.28746   0.30265   0.32740
  Beta virt. eigenvalues --    0.40140   0.43211   0.45996   0.49070   0.49816
  Beta virt. eigenvalues --    0.52087   0.54273   0.58437   0.59000   0.61482
  Beta virt. eigenvalues --    0.62466   0.67918   0.77491   0.79841   0.81242
  Beta virt. eigenvalues --    0.86901   0.87182   0.88182   0.88705   0.92322
  Beta virt. eigenvalues --    0.93825   0.95456   1.00453   1.01335   1.04766
  Beta virt. eigenvalues --    1.08512   1.13487   1.14558   1.18076   1.19772
  Beta virt. eigenvalues --    1.20232   1.20575   1.21526   1.23466   1.27287
  Beta virt. eigenvalues --    1.46981   1.54976   1.59771   1.64144   1.72054
  Beta virt. eigenvalues --    1.75464   1.82297   1.82968   1.91519   1.94819
  Beta virt. eigenvalues --    1.96012   1.97925   2.00137   2.02126   2.05372
  Beta virt. eigenvalues --    2.08812   2.11383   2.12591   2.14422   2.14517
  Beta virt. eigenvalues --    2.15321   2.23178   2.26716   2.28356   2.30475
  Beta virt. eigenvalues --    2.35394   2.36741   2.40089   2.45173   2.48954
  Beta virt. eigenvalues --    2.49811   2.53358   2.58698   2.61748   2.62836
  Beta virt. eigenvalues --    2.65139   2.65183   2.71493   2.73476   2.76651
  Beta virt. eigenvalues --    2.77442   2.78567   2.82652   2.82863   2.89995
  Beta virt. eigenvalues --    2.92898   2.98969   3.09313   3.14164   3.16596
  Beta virt. eigenvalues --    3.19878   3.23056   3.23651   3.24436   3.33550
  Beta virt. eigenvalues --    3.38609   3.44480   3.48378   3.50274   3.52239
  Beta virt. eigenvalues --    3.55948   3.70930   3.72247   3.77778   3.79385
  Beta virt. eigenvalues --    3.81999   3.85365   3.87594   3.96264   3.97154
  Beta virt. eigenvalues --    4.04270   4.10271   4.15580   4.17789   4.20240
  Beta virt. eigenvalues --    4.26066   4.53071   5.31279   5.35317   5.43304
  Beta virt. eigenvalues --    5.51898   5.55685   5.56029   5.65543   5.71646
  Beta virt. eigenvalues --    5.73231   5.74541   5.78003   5.79699   5.89409
  Beta virt. eigenvalues --    5.92317   5.95175   5.99311   6.12689   6.14764
  Beta virt. eigenvalues --    6.18540   6.21105   6.22027   6.22282   6.25741
  Beta virt. eigenvalues --    6.27822   6.30786   6.35144   6.39510   6.39593
  Beta virt. eigenvalues --    6.40985   6.42543   6.42600   6.45861   6.48067
  Beta virt. eigenvalues --    6.51224   6.60494   6.60983   6.62435   6.62529
  Beta virt. eigenvalues --    6.63203   6.68439   6.76443   6.79354   6.81521
  Beta virt. eigenvalues --    6.86191   6.86258   6.96332   6.99945   7.05727
  Beta virt. eigenvalues --    7.08435   7.16782   7.21874   7.28392   7.29918
  Beta virt. eigenvalues --    7.42057   7.47706   7.61686   7.62179   7.68695
  Beta virt. eigenvalues --    7.74545   7.80730   7.81809   7.82636   7.86916
  Beta virt. eigenvalues --    7.91044   7.91317   7.92639   7.94640   7.99378
  Beta virt. eigenvalues --    8.02591   8.05123   8.07315   8.09999   8.11622
  Beta virt. eigenvalues --    8.17214   8.18604   8.30109   8.33917   8.41306
  Beta virt. eigenvalues --    8.44052   8.45915   8.50436   8.56531   8.56887
  Beta virt. eigenvalues --    8.63113   8.69569   8.69760   8.74440   8.75426
  Beta virt. eigenvalues --    8.77835   8.80798   8.85208   8.86856   8.94285
  Beta virt. eigenvalues --    8.94546   9.00978   9.06220   9.12918   9.18782
  Beta virt. eigenvalues --    9.32284   9.32416   9.33696   9.37530   9.38804
  Beta virt. eigenvalues --    9.39297   9.50577   9.52078   9.62066   9.83049
  Beta virt. eigenvalues --   10.17884  10.19185  10.20785  10.35110  10.39012
  Beta virt. eigenvalues --   10.43720  10.44449  10.48065  10.49629  10.62488
  Beta virt. eigenvalues --   10.70863  10.77075  10.96165  11.07407  11.20933
  Beta virt. eigenvalues --   11.54098  11.89493  12.81756  12.83408  12.99441
  Beta virt. eigenvalues --   25.26554  27.16696
          Condensed to atoms (all electrons):
               1          2          3          4          5          6
     1  C    4.641945   0.423308   0.419905   0.423308   0.358669  -0.036443
     2  H    0.423308   0.605077  -0.036094  -0.023011  -0.042882   0.005147
     3  H    0.419905  -0.036094   0.640530  -0.036094  -0.055924  -0.000009
     4  H    0.423308  -0.023011  -0.036094   0.605077  -0.042882  -0.003879
     5  C    0.358669  -0.042882  -0.055924  -0.042882   5.143150   0.427844
     6  H   -0.036443   0.005147  -0.000009  -0.003879   0.427844   0.538490
     7  H   -0.036443  -0.003879  -0.000009   0.005147   0.427844  -0.030003
               7
     1  C   -0.036443
     2  H   -0.003879
     3  H   -0.000009
     4  H    0.005147
     5  C    0.427844
     6  H   -0.030003
     7  H    0.538490
          Atomic-Atomic Spin Densities.
               1          2          3          4          5          6
     1  C   -0.113331   0.005685   0.010924   0.005685  -0.041634   0.000611
     2  H    0.005685   0.028459  -0.013493   0.005573  -0.011613  -0.000009
     3  H    0.010924  -0.013493   0.118567  -0.013493  -0.037154  -0.000886
     4  H    0.005685   0.005573  -0.013493   0.028459  -0.011613   0.001637
     5  C   -0.041634  -0.011613  -0.037154  -0.011613   1.302178   0.002616
     6  H    0.000611  -0.000009  -0.000886   0.001637   0.002616  -0.096941
     7  H    0.000611   0.001637  -0.000886  -0.000009   0.002616   0.007968
               7
     1  C    0.000611
     2  H    0.001637
     3  H   -0.000886
     4  H   -0.000009
     5  C    0.002616
     6  H    0.007968
     7  H   -0.096941
 Mulliken charges and spin densities:
               1          2
     1  C   -0.194251  -0.131448
     2  H    0.072334   0.016240
     3  H    0.067695   0.063579
     4  H    0.072334   0.016240
     5  C   -0.215820   1.205396
     6  H    0.098853  -0.085004
     7  H    0.098853  -0.085004
 Sum of Mulliken charges =  -0.00000   1.00000
 Mulliken charges and spin densities with hydrogens summed into heavy atoms:
               1          2
     1  C    0.018113  -0.035388
     5  C   -0.018113   1.035388
 Electronic spatial extent (au):  <R**2>=             98.9540
 Charge=             -0.0000 electrons
 Dipole moment (field-independent basis, Debye):
    X=              0.1098    Y=             -0.1751    Z=              0.0000  Tot=              0.2067
 Quadrupole moment (field-independent basis, Debye-Ang):
   XX=            -15.2521   YY=            -14.5020   ZZ=            -13.6496
   XY=              0.1854   XZ=              0.0000   YZ=             -0.0000
 Traceless Quadrupole moment (field-independent basis, Debye-Ang):
   XX=             -0.7842   YY=             -0.0341   ZZ=              0.8183
   XY=              0.1854   XZ=              0.0000   YZ=             -0.0000
 Octapole moment (field-independent basis, Debye-Ang**2):
  XXX=              0.6726  YYY=              0.0669  ZZZ=             -0.0000  XYY=              0.2186
  XXY=             -1.5043  XXZ=             -0.0000  XZZ=             -0.4334  YZZ=              0.5637
  YYZ=             -0.0000  XYZ=              0.0000
 Hexadecapole moment (field-independent basis, Debye-Ang**3):
 XXXX=            -23.9572 YYYY=            -86.4681 ZZZZ=            -28.2016 XXXY=             -0.8003
 XXXZ=             -0.0000 YYYX=              0.1591 YYYZ=             -0.0000 ZZZX=             -0.0000
 ZZZY=              0.0000 XXYY=            -19.1575 XXZZ=             -9.0664 YYZZ=            -17.0070
 XXYZ=              0.0000 YYXZ=             -0.0000 ZZXY=              0.7846
 N-N= 3.705507618095D+01 E-N=-2.566818643478D+02  KE= 7.859654449044D+01
 Symmetry A'   KE= 7.469610988637D+01
 Symmetry A"   KE= 3.900434604067D+00
 Symmetry A'   SP= 1.000000000000D+00
 Symmetry A"   SP=-3.970553491731D-15
 1\1\GINC-LOCALHOST\SP\UCCSD(T)-FC\CC-pVQZ\C2H5(2)\ROOT\11-May-2020\0\\
 # CCSD(T)/cc-pVQZ\\test\\0,2\C,0,-0.010235,-0.692137,0.\H,0,-0.505376,
 -1.095913,0.882849\H,0,1.008446,-1.100354,0.\H,0,-0.505376,-1.095913,-
 0.882849\C,0,-0.010235,0.792559,0.\H,0,0.062561,1.344822,-0.923232\H,0
 ,0.062561,1.344822,0.923232\\Version=ES64L-G16RevA.03\State=2-A'\HF=-7
 8.6332549\MP2=-78.9846787\MP3=-79.00999\MP4D=-79.0177913\MP4DQ=-79.009
 9068\PUHF=-78.6367501\PMP2-0=-78.9868902\PMP3-0=-79.0112446\MP4SDQ=-79
 .0120181\CCSD=-79.0124695\CCSD(T)=-79.0257037\S2=0.763313\S2-1=0.75348
 2\S2A=0.750118\RMSD=4.599e-09\PG=CS [SG(C2H1),X(H4)]\\@


 YOU WILL NEVER "FIND" TIME FOR ANYTHING.
 IF YOU WANT TIME, YOU MUST MAKE IT.

                        -- CHARLES BIXTON
 Job cpu time:       0 days  3 hours 47 minutes  2.3 seconds.
 Elapsed time:       0 days  0 hours  6 minutes 24.4 seconds.
 File lengths (MBytes):  RWF=   5040 Int=      0 D2E=      0 Chk=      7 Scr=      1
 Normal termination of Gaussian 16 at Mon May 11 18:55:26 2020.
