
                                 *****************
                                 * O   R   C   A *
                                 *****************

           --- An Ab Initio, DFT and Semiempirical electronic structure package ---

                  #######################################################
                  #                        -***-                        #
                  #          Department of theory and spectroscopy      #
                  #               Directorship: Frank Neese             #
                  #        Max Planck Institute fuer Kohlenforschung    #
                  #                Kaiser Wilhelm Platz 1               #
                  #                 D-45470 Muelheim/Ruhr               #
                  #                      Germany                        #
                  #                                                     #
                  #                  All rights reserved                #
                  #                        -***-                        #
                  #######################################################


                         Program Version 4.2.0 -  RELEASE  -


 With contributions from (in alphabetic order):
   Daniel Aravena         : Magnetic Suceptibility
   Michael Atanasov       : Ab Initio Ligand Field Theory (pilot matlab implementation)
   Alexander A. Auer      : GIAO ZORA, VPT2
   Ute Becker             : Parallelization
   Giovanni Bistoni       : ED, misc. LED, open-shell LED, HFLED
   Martin Brehm           : Molecular dynamics
   Dmytro Bykov           : SCF Hessian
   Vijay G. Chilkuri      : MRCI spin determinant printing, contributions to CSF-ICE
   Dipayan Datta          : RHF DLPNO-CCSD density
   Achintya Kumar Dutta   : EOM-CC, STEOM-CC
   Dmitry Ganyushin       : Spin-Orbit,Spin-Spin,Magnetic field MRCI
   Miquel Garcia          : C-PCM Hessian, Gaussian charge scheme
   Yang Guo               : DLPNO-NEVPT2, CIM, IAO-localization
   Andreas Hansen         : Spin unrestricted coupled pair/coupled cluster methods
   Benjamin Helmich-Paris : CASSCF linear response (MC-RPA)
   Lee Huntington         : MR-EOM, pCC
   Robert Izsak           : Overlap fitted RIJCOSX, COSX-SCS-MP3, EOM
   Christian Kollmar      : KDIIS, OOCD, Brueckner-CCSD(T), CCSD density
   Simone Kossmann        : Meta GGA functionals, TD-DFT gradient, OOMP2, MP2 Hessian
   Martin Krupicka        : AUTO-CI
   Lucas Lang             : DCDCAS
   Dagmar Lenk            : GEPOL surface, SMD
   Dimitrios Liakos       : Extrapolation schemes; Compound Job, initial MDCI parallelization
   Dimitrios Manganas     : Further ROCIS development; embedding schemes
   Dimitrios Pantazis     : SARC Basis sets
   Taras Petrenko         : DFT Hessian,TD-DFT gradient, ASA, ECA, R-Raman, ABS, FL, XAS/XES, NRVS
   Peter Pinski           : DLPNO-MP2, DLPNO-MP2 Gradient
   Christoph Reimann      : Effective Core Potentials
   Marius Retegan         : Local ZFS, SOC
   Christoph Riplinger    : Optimizer, TS searches, QM/MM, DLPNO-CCSD(T), (RO)-DLPNO pert. Triples
   Tobias Risthaus        : Range-separated hybrids, TD-DFT gradient, RPA, STAB
   Michael Roemelt        : Original ROCIS implementation
   Masaaki Saitow         : Open-shell DLPNO-CCSD energy and density
   Barbara Sandhoefer     : DKH picture change effects
   Avijit Sen             : IP-ROCIS
   Kantharuban Sivalingam : CASSCF convergence, NEVPT2, FIC-MRCI
   Bernardo de Souza      : ESD, SOC TD-DFT
   Georgi Stoychev        : AutoAux, RI-MP2 NMR
   Willem Van den Heuvel  : Paramagnetic NMR
   Boris Wezisla          : Elementary symmetry handling
   Frank Wennmohs         : Technical directorship


 We gratefully acknowledge several colleagues who have allowed us to
 interface, adapt or use parts of their codes:
   Stefan Grimme, W. Hujo, H. Kruse,             : VdW corrections, initial TS optimization,
                  C. Bannwarth                     DFT functionals, gCP, sTDA/sTD-DF
   Ed Valeev, F. Pavosevic, A. Kumar             : LibInt (2-el integral package), F12 methods
   Garnet Chan, S. Sharma, J. Yang, R. Olivares  : DMRG
   Ulf Ekstrom                                   : XCFun DFT Library
   Mihaly Kallay                                 : mrcc  (arbitrary order and MRCC methods)
   Andreas Klamt, Michael Diedenhofen            : otool_cosmo (COSMO solvation model)
   Jiri Pittner, Ondrej Demel                    : Mk-CCSD
   Frank Weinhold                                : gennbo (NPA and NBO analysis)
   Christopher J. Cramer and Donald G. Truhlar   : smd solvation model
   Lars Goerigk                                  : TD-DFT with DH, B97 family of functionals
   V. Asgeirsson, H. Jonsson                     : NEB implementation
   FAccTs GmbH                                   : IRC, NEB, NEB-TS, Multilevel, MM, QM/MM, CI optimization
   S Lehtola, MJT Oliveira, MAL Marques          : LibXC Library


 Your calculation uses the libint2 library for the computation of 2-el integrals
 For citations please refer to: http://libint.valeyev.net

 Your ORCA version has been built with support for libXC version: 4.2.3
 For citations please refer to: https://tddft.org/programs/libxc/

 This ORCA versions uses:
   CBLAS   interface :  Fast vector & matrix operations
   LAPACKE interface :  Fast linear algebra routines


----- Orbital basis set information -----
Your calculation utilizes the basis: 6-31G*
   H-He, Li-Ne : W. J. Hehre, R. Ditchfield and J.A. Pople, J. Chem. Phys. 56, 2257 (1972).
                 Note: He and Ne are unpublished basis sets taken from the Gaussian program.
                 Note: Li and B from J. D. Dill and J. A. Pople, J. Chem. Phys. 62, 2921 (1975).
   Na - Ar     : M. M. Francl, W. J. Pietro, W. J. Hehre, J. S. Binkley, M. S. Gordon, 
                 D. J. DeFrees and J. A. Pople, J. Chem. Phys. 77, 3654 (1982).
   K - Zn      : V. A. Rassolov, J. A. Pople, M. A. Ratner, and T. L. Windus, J. Chem. Phys. 109, 1223 (1998).

================================================================================
                                        WARNINGS
                       Please study these warnings very carefully!
================================================================================


INFO   : the flag for use of LIBINT has been found!

================================================================================
                                       INPUT FILE
================================================================================
NAME = ethanol.inp
|  1> ! B3LYP/G 6-31G* opt freq noautostart miniprint nopop
|  2> %maxcore  1000
|  3> %pal nprocs   4 end
|  4> * xyz   0   1
|  5> C      1.22608900   -0.21604500    0.00000000
|  6> H      1.29808600   -0.85437400    0.88687500
|  7> H      2.07310500    0.47931300    0.00000000
|  8> H      1.29808600   -0.85437400   -0.88687500
|  9> C     -0.09045900    0.54259300    0.00000000
| 10> H     -0.14892000    1.19431200   -0.88763500
| 11> H     -0.14892000    1.19431200    0.88763500
| 12> O     -1.14492400   -0.41615200    0.00000000
| 13> H     -1.98514600    0.06702700    0.00000000
| 14>  *
| 15> 
| 16>                          ****END OF INPUT****
================================================================================

                       *****************************
                       * Geometry Optimization Run *
                       *****************************

Geometry optimization settings:
Update method            Update   .... BFGS
Choice of coordinates    CoordSys .... Z-matrix Internals
Initial Hessian          InHess   .... Almoef's Model

Convergence Tolerances:
Energy Change            TolE     ....  5.0000e-06 Eh
Max. Gradient            TolMAXG  ....  3.0000e-04 Eh/bohr
RMS Gradient             TolRMSG  ....  1.0000e-04 Eh/bohr
Max. Displacement        TolMAXD  ....  4.0000e-03 bohr
RMS Displacement         TolRMSD  ....  2.0000e-03 bohr
Strict Convergence                ....  False
------------------------------------------------------------------------------
                        ORCA OPTIMIZATION COORDINATE SETUP
------------------------------------------------------------------------------

The optimization will be done in new redundant internal coordinates
Making redundant internal coordinates   ...  (new redundants) done
Evaluating the initial hessian          ...  (Almloef) done
Evaluating the coordinates              ...  done
Calculating the B-matrix                .... done
Calculating the G-matrix                .... done
Diagonalizing the G-matrix              .... done
The first mode is                       ....   12
The number of degrees of freedom        ....   21

    -----------------------------------------------------------------
                    Redundant Internal Coordinates


    -----------------------------------------------------------------
         Definition                    Initial Value    Approx d2E/dq
    -----------------------------------------------------------------
      1. B(H   1,C   0)                  1.0951         0.353445   
      2. B(H   2,C   0)                  1.0959         0.352401   
      3. B(H   3,C   0)                  1.0951         0.353445   
      4. B(C   4,C   0)                  1.5195         0.388290   
      5. B(H   5,C   4)                  1.1027         0.343626   
      6. B(H   6,C   4)                  1.1027         0.343626   
      7. B(O   7,C   4)                  1.4252         0.491786   
      8. B(H   8,O   7)                  0.9692         0.502594   
      9. A(H   2,C   0,C   4)          110.6638         0.325227   
     10. A(H   1,C   0,C   4)          110.3648         0.325385   
     11. A(H   3,C   0,C   4)          110.3648         0.325385   
     12. A(H   2,C   0,H   3)          108.6055         0.289008   
     13. A(H   1,C   0,H   2)          108.6055         0.289008   
     14. A(H   1,C   0,H   3)          108.1673         0.289142   
     15. A(C   0,C   4,H   5)          109.9380         0.323883   
     16. A(H   6,C   4,O   7)          110.9992         0.334748   
     17. A(H   5,C   4,O   7)          110.9992         0.334748   
     18. A(C   0,C   4,O   7)          107.7702         0.381106   
     19. A(H   5,C   4,H   6)          107.2071         0.286606   
     20. A(C   0,C   4,H   6)          109.9380         0.323883   
     21. A(C   4,O   7,H   8)          107.8206         0.353712   
     22. D(H   6,C   4,C   0,H   3)   -179.1445         0.011991   
     23. D(H   5,C   4,C   0,H   2)     58.8984         0.011991   
     24. D(H   6,C   4,C   0,H   1)     61.3478         0.011991   
     25. D(H   5,C   4,C   0,H   1)    179.1445         0.011991   
     26. D(H   5,C   4,C   0,H   3)    -61.3478         0.011991   
     27. D(O   7,C   4,C   0,H   1)    -59.7538         0.011991   
     28. D(O   7,C   4,C   0,H   2)    180.0000         0.011991   
     29. D(O   7,C   4,C   0,H   3)     59.7538         0.011991   
     30. D(H   6,C   4,C   0,H   2)    -58.8984         0.011991   
     31. D(H   8,O   7,C   4,H   6)     59.5637         0.019102   
     32. D(H   8,O   7,C   4,H   5)    -59.5637         0.019102   
     33. D(H   8,O   7,C   4,C   0)    180.0000         0.019102   
    -----------------------------------------------------------------

Number of atoms                         .... 9
Number of degrees of freedom            .... 33

         *************************************************************
         *                GEOMETRY OPTIMIZATION CYCLE   1            *
         *************************************************************
---------------------------------
CARTESIAN COORDINATES (ANGSTROEM)
---------------------------------
  C      1.226089   -0.216045    0.000000
  H      1.298086   -0.854374    0.886875
  H      2.073105    0.479313    0.000000
  H      1.298086   -0.854374   -0.886875
  C     -0.090459    0.542593    0.000000
  H     -0.148920    1.194312   -0.887635
  H     -0.148920    1.194312    0.887635
  O     -1.144924   -0.416152    0.000000
  H     -1.985146    0.067027    0.000000

----------------------------
CARTESIAN COORDINATES (A.U.)
----------------------------
  NO LB      ZA    FRAG     MASS         X           Y           Z
   0 C     6.0000    0    12.011    2.316972   -0.408266    0.000000
   1 H     1.0000    0     1.008    2.453027   -1.614533    1.675951
   2 H     1.0000    0     1.008    3.917601    0.905770    0.000000
   3 H     1.0000    0     1.008    2.453027   -1.614533   -1.675951
   4 C     6.0000    0    12.011   -0.170943    1.025352    0.000000
   5 H     1.0000    0     1.008   -0.281418    2.256923   -1.677387
   6 H     1.0000    0     1.008   -0.281418    2.256923    1.677387
   7 O     8.0000    0    15.999   -2.163593   -0.786413    0.000000
   8 H     1.0000    0     1.008   -3.751382    0.126663    0.000000



           ************************************************************
           *        Program running with 4 parallel MPI-processes     *
           *              working on a common directory               *
           ************************************************************


           ************************************************************
           *        Program running with 4 parallel MPI-processes     *
           *              working on a common directory               *
           ************************************************************

Diagonalization of the overlap matrix:
Smallest eigenvalue                        ... 7.388e-03
Time for diagonalization                   ...    0.005 sec
Threshold for overlap eigenvalues          ... 1.000e-08
Number of eigenvalues below threshold      ... 0
Time for construction of square roots      ...    0.004 sec
Total time needed                          ...    0.009 sec

-------------------
DFT GRID GENERATION
-------------------

General Integration Accuracy     IntAcc      ...  4.340
Radial Grid Type                 RadialGrid  ... Gauss-Chebyshev
Angular Grid (max. acc.)         AngularGrid ... Lebedev-110
Angular grid pruning method      GridPruning ... 3 (G Style)
Weight generation scheme         WeightScheme... Becke
Basis function cutoff            BFCut       ...    1.0000e-11
Integration weight cutoff        WCut        ...    1.0000e-14
Grids for H and He will be reduced by one unit

# of grid points (after initial pruning)     ...   9792 (   0.0 sec)
# of grid points (after weights+screening)   ...   9350 (   0.0 sec)
nearest neighbour list constructed           ...    0.0 sec
Grid point re-assignment to atoms done       ...    0.0 sec
Grid point division into batches done        ...    0.0 sec
Reduced shell lists constructed in    0.0 sec

Total number of grid points                  ...     9350
Total number of batches                      ...      150
Average number of points per batch           ...       62
Average number of grid points per atom       ...     1039
Average number of shells per batch           ...    24.72 (82.39%)
Average number of basis functions per batch  ...    45.13 (83.57%)
Average number of large shells per batch     ...    21.21 (85.79%)
Average number of large basis fcns per batch ...    38.79 (85.97%)
Maximum spatial batch extension              ...  22.36, 16.66, 21.59 au
Average spatial batch extension              ...   1.26,  1.17,  1.15 au

Time for grid setup =    0.039 sec

Loading Hartree-Fock densities                     ... done
Calculating cut-offs                               ... done
Setting up the integral package                    ... done
Initializing the effective Hamiltonian             ... done
Starting the Coulomb interaction                   ... done (   0.0 sec)
Reading the grid                                   ... done
Mapping shells                                     ... done
Starting the XC term evaluation                    ... done (   0.0 sec)
  promolecular density results
     # of electrons  =     26.000320185
     EX              =    -20.247525240
     EC              =     -0.846109360
     EX+EC           =    -21.093634599
Transforming the Hamiltonian                       ... done (   0.0 sec)
Diagonalizing the Hamiltonian                      ... done (   0.0 sec)
Back transforming the eigenvectors                 ... done (   0.0 sec)
Now organizing SCF variables                       ... done
--------------
SCF ITERATIONS
--------------
ITER       Energy         Delta-E        Max-DP      RMS-DP      [F,P]     Damp
               ***  Starting incremental Fock matrix formation  ***
  0   -154.8943981591   0.000000000000 0.07817025  0.00501557  0.2421856 0.7000
  1   -154.9590817683  -0.064683609245 0.04230421  0.00344561  0.1041557 0.7000
                               ***Turning on DIIS***
  2   -154.9837362448  -0.024654476459 0.06345847  0.00534645  0.0347106 0.0000
  3   -155.0213279039  -0.037591659155 0.02989626  0.00229221  0.0573647 0.0000
  4   -155.0306023652  -0.009274461270 0.00894235  0.00067214  0.0113702 0.0000
  5   -155.0310045718  -0.000402206619 0.00293526  0.00023108  0.0052171 0.0000
                      *** Initiating the SOSCF procedure ***
                           *** Shutting down DIIS ***
                      *** Re-Reading the Fockian *** 
                      *** Removing any level shift *** 
ITER      Energy       Delta-E        Grad      Rot      Max-DP    RMS-DP
  6   -155.03104331  -0.0000387343  0.000225  0.000225  0.001060  0.000088
               *** Restarting incremental Fock matrix formation ***
  7   -155.03104432  -0.0000010148  0.000056  0.000081  0.000159  0.000012
  8   -155.03104430   0.0000000183  0.000084  0.000044  0.000108  0.000007
  9   -155.03104436  -0.0000000614  0.000005  0.000009  0.000017  0.000001
 10   -155.03104436   0.0000000002  0.000007  0.000005  0.000009  0.000001
                  ***Gradient check signals convergence***
              ***Rediagonalizing the Fockian in SOSCF/NRSCF***

               *****************************************************
               *                     SUCCESS                       *
               *           SCF CONVERGED AFTER  11 CYCLES          *
               *****************************************************

Setting up the final grid:

General Integration Accuracy     IntAcc      ...  4.670
Radial Grid Type                 RadialGrid  ... Gauss-Chebyshev
Angular Grid (max. acc.)         AngularGrid ... Lebedev-302
Angular grid pruning method      GridPruning ... 3 (G Style)
Weight generation scheme         WeightScheme... Becke
Basis function cutoff            BFCut       ...    1.0000e-11
Integration weight cutoff        WCut        ...    1.0000e-14
Grids for H and He will be reduced by one unit

# of grid points (after initial pruning)     ...  39000 (   0.0 sec)
# of grid points (after weights+screening)   ...  36988 (   0.0 sec)
nearest neighbour list constructed           ...    0.0 sec
Grid point re-assignment to atoms done       ...    0.0 sec
Grid point division into batches done        ...    0.2 sec
Reduced shell lists constructed in    0.2 sec

Total number of grid points                  ...    36988
Total number of batches                      ...      582
Average number of points per batch           ...       63
Average number of grid points per atom       ...     4110
Average number of shells per batch           ...    22.96 (76.53%)
Average number of basis functions per batch  ...    41.84 (77.49%)
Average number of large shells per batch     ...    19.45 (84.71%)
Average number of large basis fcns per batch ...    35.59 (85.04%)
Maximum spatial batch extension              ...  18.89, 17.48, 16.05 au
Average spatial batch extension              ...   0.76,  0.79,  0.72 au

Final grid set up in    0.3 sec
Final integration                            ... done (   0.1 sec)
Change in XC energy                          ...     0.000194220
Integrated number of electrons               ...    25.999991839
Previous integrated no of electrons          ...    26.001192165
Total Energy       :         -155.03085014 Eh           -4218.60390 eV
  Last Energy change         ...   -7.4820e-10  Tolerance :   1.0000e-08
  Last MAX-Density change    ...    1.3335e-06  Tolerance :   1.0000e-07
             **** THE GBW FILE WAS UPDATED (ethanol.gbw) ****
             **** DENSITY FILE WAS UPDATED (ethanol.scfp) ****
             **** ENERGY FILE WAS UPDATED (ethanol.en.tmp) ****
             **** THE GBW FILE WAS UPDATED (ethanol.gbw) ****
             **** DENSITY FILE WAS UPDATED (ethanol.scfp) ****
----------------
ORBITAL ENERGIES
----------------

  NO   OCC          E(Eh)            E(eV) 
   0   2.0000     -19.129985      -520.5534 
   1   2.0000     -10.221483      -278.1407 
   2   2.0000     -10.163728      -276.5691 
   3   2.0000      -1.007969       -27.4282 
   4   2.0000      -0.743119       -20.2213 
   5   2.0000      -0.605485       -16.4761 
   6   2.0000      -0.509880       -13.8745 
   7   2.0000      -0.458811       -12.4849 
   8   2.0000      -0.394233       -10.7276 
   9   2.0000      -0.378841       -10.3088 
  10   2.0000      -0.360528        -9.8105 
  11   2.0000      -0.324921        -8.8416 
  12   2.0000      -0.261021        -7.1028 
  13   0.0000       0.077329         2.1042 
  14   0.0000       0.119677         3.2566 
  15   0.0000       0.157300         4.2803 
  16   0.0000       0.162586         4.4242 
  17   0.0000       0.175684         4.7806 
  18   0.0000       0.199657         5.4329 
  19   0.0000       0.214288         5.8311 
  20   0.0000       0.240862         6.5542 
  21   0.0000       0.529820        14.4171 
  22   0.0000       0.558811        15.2060 
  23   0.0000       0.562344        15.3022 
  24   0.0000       0.585739        15.9388 
  25   0.0000       0.671644        18.2764 
  26   0.0000       0.684623        18.6296 
  27   0.0000       0.813185        22.1279 
  28   0.0000       0.851134        23.1605 
  29   0.0000       0.878314        23.9002 
  30   0.0000       0.895736        24.3742 
  31   0.0000       0.908592        24.7240 
  32   0.0000       0.943751        25.6808 
  33   0.0000       1.022652        27.8278 
  34   0.0000       1.029166        28.0050 
  35   0.0000       1.036968        28.2173 
  36   0.0000       1.183200        32.1965 
  37   0.0000       1.416505        38.5451 
  38   0.0000       1.447340        39.3841 
  39   0.0000       1.487778        40.4845 
  40   0.0000       1.731656        47.1208 
  41   0.0000       1.746448        47.5233 
  42   0.0000       1.790250        48.7152 
  43   0.0000       1.925688        52.4006 
  44   0.0000       1.946672        52.9716 
  45   0.0000       2.040039        55.5123 
  46   0.0000       2.167831        58.9897 
  47   0.0000       2.220702        60.4284 
  48   0.0000       2.328553        63.3631 
  49   0.0000       2.383586        64.8607 
  50   0.0000       2.407553        65.5128 
  51   0.0000       2.501860        68.0791 
  52   0.0000       2.615945        71.1835 
  53   0.0000       2.841340        77.3168 
Total SCF time: 0 days 0 hours 0 min 4 sec 

-------------------------   --------------------
FINAL SINGLE POINT ENERGY      -155.030850144140
-------------------------   --------------------



           ************************************************************
           *        Program running with 4 parallel MPI-processes     *
           *              working on a common directory               *
           ************************************************************
------------------------------------------------------------------------------
                         ORCA SCF GRADIENT CALCULATION
------------------------------------------------------------------------------

Gradient of the Kohn-Sham DFT energy:
Kohn-Sham wavefunction type      ... RKS
Hartree-Fock exchange scaling    ...    0.200
Number of operators              ...    1
Number of atoms                  ...    9
Basis set dimensions             ...   54
Integral neglect threshold       ... 2.5e-11
Integral primitive cutoff        ... 2.5e-12

Nuclear repulsion gradient       ... done
One Electron Gradient            ... done
Pre-screening matrix             ... done
Starting the two electron gradient:
Two electron gradient done
Exchange-correlation gradient    ... done

------------------
CARTESIAN GRADIENT
------------------

   1   C   :   -0.000173774   -0.000190537   -0.000000001
   2   H   :   -0.000033502    0.000053583   -0.000105677
   3   H   :    0.000133986    0.000114849   -0.000000000
   4   H   :   -0.000033502    0.000053583    0.000105677
   5   C   :    0.000704587    0.000851675    0.000000000
   6   H   :   -0.000033187    0.000005925    0.000089298
   7   H   :   -0.000033188    0.000005926   -0.000089298
   8   O   :   -0.000512774   -0.001212395   -0.000000000
   9   H   :   -0.000018646    0.000317392    0.000000000

Difference to translation invariance:
           :    0.0000000000    0.0000000000    0.0000000000

Norm of the cartesian gradient     ...    0.0017893871
RMS gradient                       ...    0.0003443677
MAX gradient                       ...    0.0012123954

-------
TIMINGS
-------

Total SCF gradient time            ...        1.013 sec

One electron gradient       ....       0.006 sec  (  0.6%)
Prescreening matrices       ....       0.012 sec  (  1.2%)
Two electron gradient       ....       0.266 sec  ( 26.3%)
XC gradient                 ....       0.441 sec  ( 43.5%)
------------------------------------------------------------------------------
                         ORCA GEOMETRY RELAXATION STEP
------------------------------------------------------------------------------

Reading the OPT-File                    .... done
Getting information on internals        .... done
Copying old internal coords+grads       .... done
Making the new internal coordinates     .... (new redundants).... done
Validating the new internal coordinates .... (new redundants).... done
Calculating the B-matrix                .... done
Calculating the G,G- and P matrices     .... done
Transforming gradient to internals      .... done
Projecting the internal gradient        .... done
Number of atoms                         ....   9
Number of internal coordinates          ....  33
Current Energy                          ....  -155.030850144 Eh
Current gradient norm                   ....     0.001789387 Eh/bohr
Maximum allowed component of the step   ....  0.300
Current trust radius                    ....  0.300
Evaluating the initial hessian          ....  (Almloef) done
Projecting the Hessian                  .... done
Forming the augmented Hessian           .... done
Diagonalizing the augmented Hessian     .... done
Last element of RFO vector              ....  0.999996169
Lowest eigenvalues of augmented Hessian:
 -0.000003198  0.011991056  0.019101576  0.106870863  0.107834906
Length of the computed step             ....  0.002767896
The final length of the internal step   ....  0.002767896
Converting the step to cartesian space:
 Initial RMS(Int)=    0.0004818288
Transforming coordinates:
 Iter   0:  RMS(Cart)=    0.0004636099 RMS(Int)=    1.0937622753
 Iter   1:  RMS(Cart)=    0.0000003263 RMS(Int)=    0.0000002200
 Iter   2:  RMS(Cart)=    0.0000000002 RMS(Int)=    0.0000000001
done
Storing new coordinates                 .... done

                                .--------------------.
          ----------------------|Geometry convergence|-------------------------
          Item                value                   Tolerance       Converged
          ---------------------------------------------------------------------
          RMS gradient        0.0002061115            0.0001000000      NO
          MAX gradient        0.0009793198            0.0003000000      NO
          RMS step            0.0004818288            0.0020000000      YES
          MAX step            0.0019913424            0.0040000000      YES
          ........................................................
          Max(Bonds)      0.0011      Max(Angles)    0.08
          Max(Dihed)        0.01      Max(Improp)    0.00
          ---------------------------------------------------------------------

The optimization has not yet converged - more geometry cycles are needed


    ---------------------------------------------------------------------------
                         Redundant Internal Coordinates
                            (Angstroem and degrees)

        Definition                    Value    dE/dq     Step     New-Value
    ----------------------------------------------------------------------------
     1. B(H   1,C   0)                1.0951 -0.000115  0.0002    1.0952   
     2. B(H   2,C   0)                1.0959  0.000170 -0.0003    1.0956   
     3. B(H   3,C   0)                1.0951 -0.000115  0.0002    1.0952   
     4. B(C   4,C   0)                1.5195 -0.000102  0.0001    1.5196   
     5. B(H   5,C   4)                1.1027 -0.000065  0.0001    1.1028   
     6. B(H   6,C   4)                1.1027 -0.000065  0.0001    1.1028   
     7. B(O   7,C   4)                1.4252  0.000979 -0.0011    1.4241   
     8. B(H   8,O   7)                0.9692  0.000184 -0.0002    0.9691   
     9. A(H   2,C   0,C   4)          110.66  0.000035   -0.01    110.65   
    10. A(H   1,C   0,C   4)          110.36 -0.000032    0.01    110.37   
    11. A(H   3,C   0,C   4)          110.36 -0.000032    0.01    110.37   
    12. A(H   2,C   0,H   3)          108.61  0.000015   -0.01    108.60   
    13. A(H   1,C   0,H   2)          108.61  0.000015   -0.01    108.60   
    14. A(H   1,C   0,H   3)          108.17  0.000001    0.01    108.18   
    15. A(C   0,C   4,H   5)          109.94  0.000086   -0.02    109.92   
    16. A(H   6,C   4,O   7)          111.00  0.000051   -0.01    110.99   
    17. A(H   5,C   4,O   7)          111.00  0.000051   -0.01    110.99   
    18. A(C   0,C   4,O   7)          107.77 -0.000195    0.03    107.80   
    19. A(H   5,C   4,H   6)          107.21 -0.000072    0.01    107.22   
    20. A(C   0,C   4,H   6)          109.94  0.000086   -0.02    109.92   
    21. A(C   4,O   7,H   8)          107.82 -0.000515    0.08    107.90   
    22. D(H   6,C   4,C   0,H   3)   -179.14 -0.000028    0.01   -179.13   
    23. D(H   5,C   4,C   0,H   2)     58.90  0.000008   -0.00     58.90   
    24. D(H   6,C   4,C   0,H   1)     61.35  0.000012   -0.01     61.34   
    25. D(H   5,C   4,C   0,H   1)    179.14  0.000028   -0.01    179.13   
    26. D(H   5,C   4,C   0,H   3)    -61.35 -0.000012    0.01    -61.34   
    27. D(O   7,C   4,C   0,H   1)    -59.75  0.000020   -0.01    -59.76   
    28. D(O   7,C   4,C   0,H   2)    180.00 -0.000000    0.00    180.00   
    29. D(O   7,C   4,C   0,H   3)     59.75 -0.000020    0.01     59.76   
    30. D(H   6,C   4,C   0,H   2)    -58.90 -0.000008    0.00    -58.90   
    31. D(H   8,O   7,C   4,H   6)     59.56 -0.000012    0.00     59.57   
    32. D(H   8,O   7,C   4,H   5)    -59.56  0.000012   -0.00    -59.57   
    33. D(H   8,O   7,C   4,C   0)    180.00  0.000000   -0.00    180.00   
    ----------------------------------------------------------------------------

         *************************************************************
         *                GEOMETRY OPTIMIZATION CYCLE   2            *
         *************************************************************
---------------------------------
CARTESIAN COORDINATES (ANGSTROEM)
---------------------------------
  C      1.226098   -0.216123    0.000000
  H      1.298415   -0.854448    0.887064
  H      2.072694    0.479345    0.000000
  H      1.298415   -0.854448   -0.887064
  C     -0.090681    0.542393   -0.000000
  H     -0.148949    1.194087   -0.887790
  H     -0.148949    1.194087    0.887790
  O     -1.144739   -0.415234    0.000000
  H     -1.985308    0.066952    0.000000

----------------------------
CARTESIAN COORDINATES (A.U.)
----------------------------
  NO LB      ZA    FRAG     MASS         X           Y           Z
   0 C     6.0000    0    12.011    2.316990   -0.408413    0.000000
   1 H     1.0000    0     1.008    2.453649   -1.614673    1.676308
   2 H     1.0000    0     1.008    3.916825    0.905831    0.000000
   3 H     1.0000    0     1.008    2.453649   -1.614673   -1.676308
   4 C     6.0000    0    12.011   -0.171363    1.024974   -0.000000
   5 H     1.0000    0     1.008   -0.281473    2.256498   -1.677681
   6 H     1.0000    0     1.008   -0.281473    2.256498    1.677681
   7 O     8.0000    0    15.999   -2.163243   -0.784678    0.000000
   8 H     1.0000    0     1.008   -3.751688    0.126521    0.000000

--------------------------------
INTERNAL COORDINATES (ANGSTROEM)
--------------------------------
 C      0   0   0     0.000000000000     0.00000000     0.00000000
 H      1   0   0     1.095249322125     0.00000000     0.00000000
 H      1   2   0     1.095628154310   108.59821813     0.00000000
 H      1   2   3     1.095249321302   108.17613133   117.68797804
 C      1   2   3     1.519623233383   110.37261160   238.53706927
 H      5   1   2     1.102847434010   109.92181933   179.13231195
 H      5   1   2     1.102847432892   109.92181909    61.33900666
 O      5   1   2     1.424108818160   107.80077159   300.23565937
 H      8   5   1     0.969051139187   107.90398548   180.00000000

---------------------------
INTERNAL COORDINATES (A.U.)
---------------------------
 C      0   0   0     0.000000000000     0.00000000     0.00000000
 H      1   0   0     2.069721267180     0.00000000     0.00000000
 H      1   2   0     2.070437156259   108.59821813     0.00000000
 H      1   2   3     2.069721265624   108.17613133   117.68797804
 C      1   2   3     2.871671737839   110.37261160   238.53706927
 H      5   1   2     2.084079617777   109.92181933   179.13231195
 H      5   1   2     2.084079615664   109.92181909    61.33900666
 O      5   1   2     2.691175651225   107.80077159   300.23565937
 H      8   5   1     1.831241262828   107.90398548   180.00000000



           ************************************************************
           *        Program running with 4 parallel MPI-processes     *
           *              working on a common directory               *
           ************************************************************


           ************************************************************
           *        Program running with 4 parallel MPI-processes     *
           *              working on a common directory               *
           ************************************************************

Diagonalization of the overlap matrix:
Smallest eigenvalue                        ... 7.385e-03
Time for diagonalization                   ...    0.002 sec
Threshold for overlap eigenvalues          ... 1.000e-08
Number of eigenvalues below threshold      ... 0
Time for construction of square roots      ...    0.004 sec
Total time needed                          ...    0.006 sec

-------------------
DFT GRID GENERATION
-------------------

General Integration Accuracy     IntAcc      ...  4.340
Radial Grid Type                 RadialGrid  ... Gauss-Chebyshev
Angular Grid (max. acc.)         AngularGrid ... Lebedev-110
Angular grid pruning method      GridPruning ... 3 (G Style)
Weight generation scheme         WeightScheme... Becke
Basis function cutoff            BFCut       ...    1.0000e-11
Integration weight cutoff        WCut        ...    1.0000e-14
Grids for H and He will be reduced by one unit

# of grid points (after initial pruning)     ...   9792 (   0.0 sec)
# of grid points (after weights+screening)   ...   9348 (   0.0 sec)
nearest neighbour list constructed           ...    0.0 sec
Grid point re-assignment to atoms done       ...    0.0 sec
Grid point division into batches done        ...    0.0 sec
Reduced shell lists constructed in    0.0 sec

Total number of grid points                  ...     9348
Total number of batches                      ...      150
Average number of points per batch           ...       62
Average number of grid points per atom       ...     1039
Average number of shells per batch           ...    24.51 (81.71%)
Average number of basis functions per batch  ...    44.51 (82.43%)
Average number of large shells per batch     ...    21.03 (85.77%)
Average number of large basis fcns per batch ...    38.51 (86.52%)
Maximum spatial batch extension              ...  22.36, 16.27, 21.59 au
Average spatial batch extension              ...   1.28,  1.18,  1.16 au

Time for grid setup =    0.037 sec

--------------
SCF ITERATIONS
--------------
ITER       Energy         Delta-E        Max-DP      RMS-DP      [F,P]     Damp
               ***  Starting incremental Fock matrix formation  ***
                      *** Initiating the SOSCF procedure ***
                      *** Re-Reading the Fockian *** 
                      *** Removing any level shift *** 
ITER      Energy       Delta-E        Grad      Rot      Max-DP    RMS-DP
  0   -155.03104611 -155.0310461075  0.000162  0.000162  0.000330  0.000022
               *** Restarting incremental Fock matrix formation ***
  1   -155.03104668  -0.0000005734  0.000059  0.000079  0.000166  0.000011
  2   -155.03104671  -0.0000000296  0.000065  0.000038  0.000122  0.000006
  3   -155.03104674  -0.0000000268  0.000011  0.000022  0.000040  0.000002
  4   -155.03104674  -0.0000000026  0.000003  0.000003  0.000008  0.000001
                  ***Gradient check signals convergence***
              ***Rediagonalizing the Fockian in SOSCF/NRSCF***

               *****************************************************
               *                     SUCCESS                       *
               *           SCF CONVERGED AFTER   5 CYCLES          *
               *****************************************************

Setting up the final grid:

General Integration Accuracy     IntAcc      ...  4.670
Radial Grid Type                 RadialGrid  ... Gauss-Chebyshev
Angular Grid (max. acc.)         AngularGrid ... Lebedev-302
Angular grid pruning method      GridPruning ... 3 (G Style)
Weight generation scheme         WeightScheme... Becke
Basis function cutoff            BFCut       ...    1.0000e-11
Integration weight cutoff        WCut        ...    1.0000e-14
Grids for H and He will be reduced by one unit

# of grid points (after initial pruning)     ...  39000 (   0.0 sec)
# of grid points (after weights+screening)   ...  36988 (   0.0 sec)
nearest neighbour list constructed           ...    0.0 sec
Grid point re-assignment to atoms done       ...    0.0 sec
Grid point division into batches done        ...    0.2 sec
Reduced shell lists constructed in    0.2 sec

Total number of grid points                  ...    36988
Total number of batches                      ...      582
Average number of points per batch           ...       63
Average number of grid points per atom       ...     4110
Average number of shells per batch           ...    22.86 (76.19%)
Average number of basis functions per batch  ...    41.74 (77.30%)
Average number of large shells per batch     ...    19.32 (84.52%)
Average number of large basis fcns per batch ...    35.14 (84.19%)
Maximum spatial batch extension              ...  18.89, 17.48, 16.05 au
Average spatial batch extension              ...   0.77,  0.79,  0.73 au

Final grid set up in    0.3 sec
Final integration                            ... done (   0.1 sec)
Change in XC energy                          ...     0.000195281
Integrated number of electrons               ...    25.999991779
Previous integrated no of electrons          ...    26.001206667
Total Energy       :         -155.03085146 Eh           -4218.60394 eV
  Last Energy change         ...   -9.0921e-11  Tolerance :   1.0000e-08
  Last MAX-Density change    ...    4.0195e-06  Tolerance :   1.0000e-07
             **** THE GBW FILE WAS UPDATED (ethanol.gbw) ****
             **** DENSITY FILE WAS UPDATED (ethanol.scfp) ****
             **** ENERGY FILE WAS UPDATED (ethanol.en.tmp) ****
             **** THE GBW FILE WAS UPDATED (ethanol.gbw) ****
             **** DENSITY FILE WAS UPDATED (ethanol.scfp) ****
Total SCF time: 0 days 0 hours 0 min 2 sec 

-------------------------   --------------------
FINAL SINGLE POINT ENERGY      -155.030851459354
-------------------------   --------------------



           ************************************************************
           *        Program running with 4 parallel MPI-processes     *
           *              working on a common directory               *
           ************************************************************
------------------------------------------------------------------------------
                         ORCA SCF GRADIENT CALCULATION
------------------------------------------------------------------------------

Gradient of the Kohn-Sham DFT energy:
Kohn-Sham wavefunction type      ... RKS
Hartree-Fock exchange scaling    ...    0.200
Number of operators              ...    1
Number of atoms                  ...    9
Basis set dimensions             ...   54
Integral neglect threshold       ... 2.5e-11
Integral primitive cutoff        ... 2.5e-12

Nuclear repulsion gradient       ... done
One Electron Gradient            ... done
Pre-screening matrix             ... done
Starting the two electron gradient:
Two electron gradient done
Exchange-correlation gradient    ... done

------------------
CARTESIAN GRADIENT
------------------

   1   C   :   -0.000045443   -0.000005779    0.000000000
   2   H   :   -0.000008292    0.000004364   -0.000006979
   3   H   :    0.000010861    0.000008937    0.000000000
   4   H   :   -0.000008292    0.000004365    0.000006980
   5   C   :    0.000393898    0.000440795   -0.000000000
   6   H   :   -0.000077305   -0.000027736    0.000033329
   7   H   :   -0.000077304   -0.000027738   -0.000033330
   8   O   :   -0.000247583   -0.000554072   -0.000000000
   9   H   :    0.000059460    0.000156863    0.000000000

Difference to translation invariance:
           :    0.0000000000    0.0000000000    0.0000000000

Norm of the cartesian gradient     ...    0.0008741700
RMS gradient                       ...    0.0001682341
MAX gradient                       ...    0.0005540724

-------
TIMINGS
-------

Total SCF gradient time            ...        1.094 sec

One electron gradient       ....       0.014 sec  (  1.3%)
Prescreening matrices       ....       0.019 sec  (  1.7%)
Two electron gradient       ....       0.310 sec  ( 28.3%)
XC gradient                 ....       0.468 sec  ( 42.8%)
------------------------------------------------------------------------------
                         ORCA GEOMETRY RELAXATION STEP
------------------------------------------------------------------------------

Reading the OPT-File                    .... done
Getting information on internals        .... done
Copying old internal coords+grads       .... done
Making the new internal coordinates     .... (new redundants).... done
Validating the new internal coordinates .... (new redundants).... done
Calculating the B-matrix                .... done
Calculating the G,G- and P matrices     .... done
Transforming gradient to internals      .... done
Projecting the internal gradient        .... done
Number of atoms                         ....   9
Number of internal coordinates          ....  33
Current Energy                          ....  -155.030851459 Eh
Current gradient norm                   ....     0.000874170 Eh/bohr
Maximum allowed component of the step   ....  0.300
Current trust radius                    ....  0.300
Updating the Hessian (BFGS)             .... done
Forming the augmented Hessian           .... done
Diagonalizing the augmented Hessian     .... done
Last element of RFO vector              ....  0.999995323
Lowest eigenvalues of augmented Hessian:
 -0.000001599  0.011991056  0.019101576  0.104662576  0.106870863
Length of the computed step             ....  0.003058528
The final length of the internal step   ....  0.003058528
Converting the step to cartesian space:
 Initial RMS(Int)=    0.0005324214
Transforming coordinates:
 Iter   0:  RMS(Cart)=    0.0005391446 RMS(Int)=    1.5468133829
 Iter   1:  RMS(Cart)=    0.0000004637 RMS(Int)=    0.0000003742
 Iter   2:  RMS(Cart)=    0.0000000005 RMS(Int)=    0.0000000003
done
Storing new coordinates                 .... done

                                .--------------------.
          ----------------------|Geometry convergence|-------------------------
          Item                value                   Tolerance       Converged
          ---------------------------------------------------------------------
          Energy change      -0.0000013152            0.0000050000      YES
          RMS gradient        0.0000953825            0.0001000000      YES
          MAX gradient        0.0003903472            0.0003000000      NO
          RMS step            0.0005324214            0.0020000000      YES
          MAX step            0.0018953830            0.0040000000      YES
          ........................................................
          Max(Bonds)      0.0009      Max(Angles)    0.11
          Max(Dihed)        0.03      Max(Improp)    0.00
          ---------------------------------------------------------------------

The optimization has not yet converged - more geometry cycles are needed


    ---------------------------------------------------------------------------
                         Redundant Internal Coordinates
                            (Angstroem and degrees)

        Definition                    Value    dE/dq     Step     New-Value
    ----------------------------------------------------------------------------
     1. B(H   1,C   0)                1.0952 -0.000004  0.0000    1.0953   
     2. B(H   2,C   0)                1.0956  0.000007 -0.0001    1.0956   
     3. B(H   3,C   0)                1.0952 -0.000004  0.0000    1.0953   
     4. B(C   4,C   0)                1.5196 -0.000045  0.0001    1.5198   
     5. B(H   5,C   4)                1.1028 -0.000038  0.0001    1.1030   
     6. B(H   6,C   4)                1.1028 -0.000038  0.0001    1.1030   
     7. B(O   7,C   4)                1.4241  0.000390 -0.0009    1.4232   
     8. B(H   8,O   7)                0.9691  0.000036 -0.0001    0.9690   
     9. A(H   2,C   0,C   4)          110.65  0.000029   -0.01    110.64   
    10. A(H   1,C   0,C   4)          110.37 -0.000019    0.01    110.38   
    11. A(H   3,C   0,C   4)          110.37 -0.000019    0.01    110.38   
    12. A(H   2,C   0,H   3)          108.60  0.000002   -0.01    108.59   
    13. A(H   1,C   0,H   2)          108.60  0.000002   -0.01    108.59   
    14. A(H   1,C   0,H   3)          108.18  0.000005    0.01    108.18   
    15. A(C   0,C   4,H   5)          109.92  0.000081   -0.04    109.89   
    16. A(H   6,C   4,O   7)          110.99 -0.000017    0.02    111.01   
    17. A(H   5,C   4,O   7)          110.99 -0.000017    0.02    111.01   
    18. A(C   0,C   4,O   7)          107.80 -0.000091    0.04    107.84   
    19. A(H   5,C   4,H   6)          107.22 -0.000032   -0.00    107.22   
    20. A(C   0,C   4,H   6)          109.92  0.000081   -0.04    109.89   
    21. A(C   4,O   7,H   8)          107.90 -0.000331    0.11    108.01   
    22. D(H   6,C   4,C   0,H   3)   -179.13 -0.000038    0.03   -179.10   
    23. D(H   5,C   4,C   0,H   2)     58.90  0.000029   -0.02     58.87   
    24. D(H   6,C   4,C   0,H   1)     61.34 -0.000020    0.01     61.35   
    25. D(H   5,C   4,C   0,H   1)    179.13  0.000038   -0.03    179.10   
    26. D(H   5,C   4,C   0,H   3)    -61.34  0.000020   -0.01    -61.35   
    27. D(O   7,C   4,C   0,H   1)    -59.76  0.000009   -0.01    -59.77   
    28. D(O   7,C   4,C   0,H   2)   -180.00  0.000000   -0.00   -180.00   
    29. D(O   7,C   4,C   0,H   3)     59.76 -0.000009    0.01     59.77   
    30. D(H   6,C   4,C   0,H   2)    -58.90 -0.000029    0.02    -58.87   
    31. D(H   8,O   7,C   4,H   6)     59.57 -0.000031    0.01     59.58   
    32. D(H   8,O   7,C   4,H   5)    -59.57  0.000031   -0.01    -59.58   
    33. D(H   8,O   7,C   4,C   0)    180.00 -0.000000    0.00    180.00   
    ----------------------------------------------------------------------------

         *************************************************************
         *                GEOMETRY OPTIMIZATION CYCLE   3            *
         *************************************************************
---------------------------------
CARTESIAN COORDINATES (ANGSTROEM)
---------------------------------
  C      1.226053   -0.216225    0.000000
  H      1.298706   -0.854479    0.887132
  H      2.072326    0.479550   -0.000000
  H      1.298706   -0.854479   -0.887132
  C     -0.090959    0.542146    0.000000
  H     -0.148543    1.193974   -0.887885
  H     -0.148543    1.193974    0.887885
  O     -1.144785   -0.414390    0.000000
  H     -1.985964    0.066540   -0.000000

----------------------------
CARTESIAN COORDINATES (A.U.)
----------------------------
  NO LB      ZA    FRAG     MASS         X           Y           Z
   0 C     6.0000    0    12.011    2.316904   -0.408605    0.000000
   1 H     1.0000    0     1.008    2.454198   -1.614730    1.676436
   2 H     1.0000    0     1.008    3.916130    0.906219   -0.000000
   3 H     1.0000    0     1.008    2.454198   -1.614730   -1.676436
   4 C     6.0000    0    12.011   -0.171888    1.024508    0.000000
   5 H     1.0000    0     1.008   -0.280705    2.256283   -1.677859
   6 H     1.0000    0     1.008   -0.280705    2.256283    1.677859
   7 O     8.0000    0    15.999   -2.163329   -0.783084    0.000000
   8 H     1.0000    0     1.008   -3.752928    0.125742   -0.000000

--------------------------------
INTERNAL COORDINATES (ANGSTROEM)
--------------------------------
 C      0   0   0     0.000000000000     0.00000000     0.00000000
 H      1   0   0     1.095284958763     0.00000000     0.00000000
 H      1   2   0     1.095573969414   108.59275830     0.00000000
 H      1   2   3     1.095284960321   108.18309433   117.68234505
 C      1   2   3     1.519752224903   110.38159317   238.55225708
 H      5   1   2     1.102966158107   109.88578022   179.10052828
 H      5   1   2     1.102966160844   109.88578109    61.35068694
 O      5   1   2     1.423203912479   107.83609959   300.22560734
 H      8   5   1     0.968956477334   108.01258293   180.00000121

---------------------------
INTERNAL COORDINATES (A.U.)
---------------------------
 C      0   0   0     0.000000000000     0.00000000     0.00000000
 H      1   0   0     2.069788610665     0.00000000     0.00000000
 H      1   2   0     2.070334761645   108.59275830     0.00000000
 H      1   2   3     2.069788613609   108.18309433   117.68234505
 C      1   2   3     2.871915496484   110.38159317   238.55225708
 H      5   1   2     2.084303973805   109.88578022   179.10052828
 H      5   1   2     2.084303978978   109.88578109    61.35068694
 O      5   1   2     2.689465627311   107.83609959   300.22560734
 H      8   5   1     1.831062377849   108.01258293   180.00000121



           ************************************************************
           *        Program running with 4 parallel MPI-processes     *
           *              working on a common directory               *
           ************************************************************


           ************************************************************
           *        Program running with 4 parallel MPI-processes     *
           *              working on a common directory               *
           ************************************************************

Diagonalization of the overlap matrix:
Smallest eigenvalue                        ... 7.383e-03
Time for diagonalization                   ...    0.002 sec
Threshold for overlap eigenvalues          ... 1.000e-08
Number of eigenvalues below threshold      ... 0
Time for construction of square roots      ...    0.004 sec
Total time needed                          ...    0.006 sec

-------------------
DFT GRID GENERATION
-------------------

General Integration Accuracy     IntAcc      ...  4.340
Radial Grid Type                 RadialGrid  ... Gauss-Chebyshev
Angular Grid (max. acc.)         AngularGrid ... Lebedev-110
Angular grid pruning method      GridPruning ... 3 (G Style)
Weight generation scheme         WeightScheme... Becke
Basis function cutoff            BFCut       ...    1.0000e-11
Integration weight cutoff        WCut        ...    1.0000e-14
Grids for H and He will be reduced by one unit

# of grid points (after initial pruning)     ...   9792 (   0.0 sec)
# of grid points (after weights+screening)   ...   9348 (   0.0 sec)
nearest neighbour list constructed           ...    0.0 sec
Grid point re-assignment to atoms done       ...    0.0 sec
Grid point division into batches done        ...    0.0 sec
Reduced shell lists constructed in    0.0 sec

Total number of grid points                  ...     9348
Total number of batches                      ...      150
Average number of points per batch           ...       62
Average number of grid points per atom       ...     1039
Average number of shells per batch           ...    24.56 (81.88%)
Average number of basis functions per batch  ...    44.62 (82.62%)
Average number of large shells per batch     ...    21.21 (86.33%)
Average number of large basis fcns per batch ...    38.74 (86.84%)
Maximum spatial batch extension              ...  22.36, 16.27, 21.59 au
Average spatial batch extension              ...   1.28,  1.20,  1.16 au

Time for grid setup =    0.037 sec

--------------
SCF ITERATIONS
--------------
ITER       Energy         Delta-E        Max-DP      RMS-DP      [F,P]     Damp
               ***  Starting incremental Fock matrix formation  ***
                      *** Initiating the SOSCF procedure ***
                      *** Re-Reading the Fockian *** 
                      *** Removing any level shift *** 
ITER      Energy       Delta-E        Grad      Rot      Max-DP    RMS-DP
  0   -155.03104771 -155.0310477110  0.000184  0.000184  0.000340  0.000022
               *** Restarting incremental Fock matrix formation ***
  1   -155.03104833  -0.0000006192  0.000052  0.000091  0.000154  0.000011
  2   -155.03104837  -0.0000000356  0.000061  0.000044  0.000123  0.000006
  3   -155.03104839  -0.0000000246  0.000014  0.000026  0.000042  0.000003
                  ***Gradient check signals convergence***
              ***Rediagonalizing the Fockian in SOSCF/NRSCF***

               *****************************************************
               *                     SUCCESS                       *
               *           SCF CONVERGED AFTER   4 CYCLES          *
               *****************************************************

Setting up the final grid:

General Integration Accuracy     IntAcc      ...  4.670
Radial Grid Type                 RadialGrid  ... Gauss-Chebyshev
Angular Grid (max. acc.)         AngularGrid ... Lebedev-302
Angular grid pruning method      GridPruning ... 3 (G Style)
Weight generation scheme         WeightScheme... Becke
Basis function cutoff            BFCut       ...    1.0000e-11
Integration weight cutoff        WCut        ...    1.0000e-14
Grids for H and He will be reduced by one unit

# of grid points (after initial pruning)     ...  39000 (   0.0 sec)
# of grid points (after weights+screening)   ...  36988 (   0.0 sec)
nearest neighbour list constructed           ...    0.0 sec
Grid point re-assignment to atoms done       ...    0.0 sec
Grid point division into batches done        ...    0.2 sec
Reduced shell lists constructed in    0.2 sec

Total number of grid points                  ...    36988
Total number of batches                      ...      583
Average number of points per batch           ...       63
Average number of grid points per atom       ...     4110
Average number of shells per batch           ...    22.90 (76.35%)
Average number of basis functions per batch  ...    41.76 (77.34%)
Average number of large shells per batch     ...    19.38 (84.62%)
Average number of large basis fcns per batch ...    35.37 (84.69%)
Maximum spatial batch extension              ...  18.89, 17.48, 16.05 au
Average spatial batch extension              ...   0.77,  0.81,  0.73 au

Final grid set up in    0.3 sec
Final integration                            ... done (   0.1 sec)
Change in XC energy                          ...     0.000196765
Integrated number of electrons               ...    25.999991717
Previous integrated no of electrons          ...    26.001223503
Total Energy       :         -155.03085163 Eh           -4218.60394 eV
  Last Energy change         ...   -3.5013e-09  Tolerance :   1.0000e-08
  Last MAX-Density change    ...    4.1855e-06  Tolerance :   1.0000e-07
             **** THE GBW FILE WAS UPDATED (ethanol.gbw) ****
             **** DENSITY FILE WAS UPDATED (ethanol.scfp) ****
             **** ENERGY FILE WAS UPDATED (ethanol.en.tmp) ****
             **** THE GBW FILE WAS UPDATED (ethanol.gbw) ****
             **** DENSITY FILE WAS UPDATED (ethanol.scfp) ****
Total SCF time: 0 days 0 hours 0 min 2 sec 

-------------------------   --------------------
FINAL SINGLE POINT ENERGY      -155.030851628795
-------------------------   --------------------



           ************************************************************
           *        Program running with 4 parallel MPI-processes     *
           *              working on a common directory               *
           ************************************************************
------------------------------------------------------------------------------
                         ORCA SCF GRADIENT CALCULATION
------------------------------------------------------------------------------

Gradient of the Kohn-Sham DFT energy:
Kohn-Sham wavefunction type      ... RKS
Hartree-Fock exchange scaling    ...    0.200
Number of operators              ...    1
Number of atoms                  ...    9
Basis set dimensions             ...   54
Integral neglect threshold       ... 2.5e-11
Integral primitive cutoff        ... 2.5e-12

Nuclear repulsion gradient       ... done
One Electron Gradient            ... done
Pre-screening matrix             ... done
Starting the two electron gradient:
Two electron gradient done
Exchange-correlation gradient    ... done

------------------
CARTESIAN GRADIENT
------------------

   1   C   :    0.000017396    0.000053192    0.000000000
   2   H   :    0.000003543    0.000003791    0.000014794
   3   H   :   -0.000012292   -0.000016910   -0.000000000
   4   H   :    0.000003542    0.000003790   -0.000014795
   5   C   :    0.000090031    0.000011728    0.000000001
   6   H   :   -0.000058607   -0.000027573   -0.000019554
   7   H   :   -0.000058608   -0.000027572    0.000019555
   8   O   :   -0.000010149    0.000000328   -0.000000000
   9   H   :    0.000025143   -0.000000774   -0.000000000

Difference to translation invariance:
           :    0.0000000000    0.0000000000   -0.0000000000

Norm of the cartesian gradient     ...    0.0001489780
RMS gradient                       ...    0.0000286708
MAX gradient                       ...    0.0000900305

-------
TIMINGS
-------

Total SCF gradient time            ...        1.101 sec

One electron gradient       ....       0.006 sec  (  0.5%)
Prescreening matrices       ....       0.011 sec  (  1.0%)
Two electron gradient       ....       0.326 sec  ( 29.6%)
XC gradient                 ....       0.436 sec  ( 39.6%)
------------------------------------------------------------------------------
                         ORCA GEOMETRY RELAXATION STEP
------------------------------------------------------------------------------

Reading the OPT-File                    .... done
Getting information on internals        .... done
Copying old internal coords+grads       .... done
Making the new internal coordinates     .... (new redundants).... done
Validating the new internal coordinates .... (new redundants).... done
Calculating the B-matrix                .... done
Calculating the G,G- and P matrices     .... done
Transforming gradient to internals      .... done
Projecting the internal gradient        .... done
Number of atoms                         ....   9
Number of internal coordinates          ....  33
Current Energy                          ....  -155.030851629 Eh
Current gradient norm                   ....     0.000148978 Eh/bohr
Maximum allowed component of the step   ....  0.300
Current trust radius                    ....  0.300
Updating the Hessian (BFGS)             .... done
Forming the augmented Hessian           .... done
Diagonalizing the augmented Hessian     .... done
Last element of RFO vector              ....  0.999999678
Lowest eigenvalues of augmented Hessian:
 -0.000000086  0.011991056  0.019101576  0.094511268  0.106870863
Length of the computed step             ....  0.000802774
The final length of the internal step   ....  0.000802774
Converting the step to cartesian space:
 Initial RMS(Int)=    0.0001397451
Transforming coordinates:
 Iter   0:  RMS(Cart)=    0.0001724814 RMS(Int)=    1.5468132967
 Iter   1:  RMS(Cart)=    0.0000000261 RMS(Int)=    0.0000000255
done
Storing new coordinates                 .... done

                                .--------------------.
          ----------------------|Geometry convergence|-------------------------
          Item                value                   Tolerance       Converged
          ---------------------------------------------------------------------
          Energy change      -0.0000001694            0.0000050000      YES
          RMS gradient        0.0000221776            0.0001000000      YES
          MAX gradient        0.0000496416            0.0003000000      YES
          RMS step            0.0001397451            0.0020000000      YES
          MAX step            0.0003147918            0.0040000000      YES
          ........................................................
          Max(Bonds)      0.0001      Max(Angles)    0.02
          Max(Dihed)        0.01      Max(Improp)    0.00
          ---------------------------------------------------------------------

                    ***********************HURRAY********************
                    ***        THE OPTIMIZATION HAS CONVERGED     ***
                    *************************************************


    ---------------------------------------------------------------------------
                         Redundant Internal Coordinates

                          --- Optimized Parameters ---  
                            (Angstroem and degrees)

        Definition                    OldVal   dE/dq     Step     FinalVal
    ----------------------------------------------------------------------------
     1. B(H   1,C   0)                1.0953  0.000014 -0.0000    1.0953   
     2. B(H   2,C   0)                1.0956 -0.000027  0.0000    1.0956   
     3. B(H   3,C   0)                1.0953  0.000014 -0.0000    1.0953   
     4. B(C   4,C   0)                1.5198 -0.000006  0.0000    1.5198   
     5. B(H   5,C   4)                1.1030  0.000004  0.0000    1.1030   
     6. B(H   6,C   4)                1.1030  0.000004  0.0000    1.1030   
     7. B(O   7,C   4)                1.4232 -0.000027 -0.0001    1.4231   
     8. B(H   8,O   7)                0.9690 -0.000013  0.0000    0.9690   
     9. A(H   2,C   0,C   4)          110.64  0.000031   -0.01    110.63   
    10. A(H   1,C   0,C   4)          110.38 -0.000013    0.00    110.39   
    11. A(H   3,C   0,C   4)          110.38 -0.000013    0.00    110.39   
    12. A(H   2,C   0,H   3)          108.59 -0.000007    0.00    108.59   
    13. A(H   1,C   0,H   2)          108.59 -0.000007    0.00    108.59   
    14. A(H   1,C   0,H   3)          108.18  0.000009    0.00    108.18   
    15. A(C   0,C   4,H   5)          109.89  0.000027   -0.01    109.87   
    16. A(H   6,C   4,O   7)          111.01 -0.000045    0.01    111.02   
    17. A(H   5,C   4,O   7)          111.01 -0.000045    0.01    111.02   
    18. A(C   0,C   4,O   7)          107.84  0.000027    0.00    107.84   
    19. A(H   5,C   4,H   6)          107.22  0.000009   -0.01    107.21   
    20. A(C   0,C   4,H   6)          109.89  0.000027   -0.01    109.87   
    21. A(C   4,O   7,H   8)          108.01 -0.000050    0.02    108.03   
    22. D(H   6,C   4,C   0,H   3)   -179.10 -0.000024    0.01   -179.09   
    23. D(H   5,C   4,C   0,H   2)     58.87  0.000022   -0.01     58.86   
    24. D(H   6,C   4,C   0,H   1)     61.35 -0.000019    0.01     61.36   
    25. D(H   5,C   4,C   0,H   1)    179.10  0.000024   -0.01    179.09   
    26. D(H   5,C   4,C   0,H   3)    -61.35  0.000019   -0.01    -61.36   
    27. D(O   7,C   4,C   0,H   1)    -59.77  0.000003   -0.00    -59.78   
    28. D(O   7,C   4,C   0,H   2)    180.00 -0.000000    0.00    180.00   
    29. D(O   7,C   4,C   0,H   3)     59.77 -0.000003    0.00     59.78   
    30. D(H   6,C   4,C   0,H   2)    -58.87 -0.000022    0.01    -58.86   
    31. D(H   8,O   7,C   4,H   6)     59.58 -0.000024    0.00     59.58   
    32. D(H   8,O   7,C   4,H   5)    -59.58  0.000024   -0.00    -59.58   
    33. D(H   8,O   7,C   4,C   0)   -180.00  0.000000   -0.00   -180.00   
    ----------------------------------------------------------------------------
                 *******************************************************
                 *** FINAL ENERGY EVALUATION AT THE STATIONARY POINT ***
                 ***               (AFTER    3 CYCLES)               ***
                 *******************************************************
---------------------------------
CARTESIAN COORDINATES (ANGSTROEM)
---------------------------------
  C      1.225996   -0.216259    0.000000
  H      1.298728   -0.854496    0.887122
  H      2.072202    0.479645    0.000000
  H      1.298728   -0.854496   -0.887122
  C     -0.091031    0.542128   -0.000000
  H     -0.148320    1.194042   -0.887845
  H     -0.148320    1.194042    0.887845
  O     -1.144833   -0.414339    0.000000
  H     -1.986152    0.066347    0.000000

----------------------------
CARTESIAN COORDINATES (A.U.)
----------------------------
  NO LB      ZA    FRAG     MASS         X           Y           Z
   0 C     6.0000    0    12.011    2.316798   -0.408671    0.000000
   1 H     1.0000    0     1.008    2.454240   -1.614763    1.676418
   2 H     1.0000    0     1.008    3.915894    0.906397    0.000000
   3 H     1.0000    0     1.008    2.454240   -1.614763   -1.676418
   4 C     6.0000    0    12.011   -0.172024    1.024473   -0.000000
   5 H     1.0000    0     1.008   -0.280285    2.256412   -1.677783
   6 H     1.0000    0     1.008   -0.280285    2.256412    1.677783
   7 O     8.0000    0    15.999   -2.163421   -0.782988    0.000000
   8 H     1.0000    0     1.008   -3.753284    0.125378    0.000000



           ************************************************************
           *        Program running with 4 parallel MPI-processes     *
           *              working on a common directory               *
           ************************************************************


           ************************************************************
           *        Program running with 4 parallel MPI-processes     *
           *              working on a common directory               *
           ************************************************************

Diagonalization of the overlap matrix:
Smallest eigenvalue                        ... 7.383e-03
Time for diagonalization                   ...    0.002 sec
Threshold for overlap eigenvalues          ... 1.000e-08
Number of eigenvalues below threshold      ... 0
Time for construction of square roots      ...    0.004 sec
Total time needed                          ...    0.006 sec

-------------------
DFT GRID GENERATION
-------------------

General Integration Accuracy     IntAcc      ...  4.340
Radial Grid Type                 RadialGrid  ... Gauss-Chebyshev
Angular Grid (max. acc.)         AngularGrid ... Lebedev-110
Angular grid pruning method      GridPruning ... 3 (G Style)
Weight generation scheme         WeightScheme... Becke
Basis function cutoff            BFCut       ...    1.0000e-11
Integration weight cutoff        WCut        ...    1.0000e-14
Grids for H and He will be reduced by one unit

# of grid points (after initial pruning)     ...   9792 (   0.0 sec)
# of grid points (after weights+screening)   ...   9350 (   0.0 sec)
nearest neighbour list constructed           ...    0.0 sec
Grid point re-assignment to atoms done       ...    0.0 sec
Grid point division into batches done        ...    0.0 sec
Reduced shell lists constructed in    0.0 sec

Total number of grid points                  ...     9350
Total number of batches                      ...      150
Average number of points per batch           ...       62
Average number of grid points per atom       ...     1039
Average number of shells per batch           ...    24.54 (81.79%)
Average number of basis functions per batch  ...    44.64 (82.67%)
Average number of large shells per batch     ...    21.05 (85.79%)
Average number of large basis fcns per batch ...    38.59 (86.44%)
Maximum spatial batch extension              ...  22.36, 16.27, 21.59 au
Average spatial batch extension              ...   1.28,  1.19,  1.16 au

Time for grid setup =    0.043 sec

--------------
SCF ITERATIONS
--------------
ITER       Energy         Delta-E        Max-DP      RMS-DP      [F,P]     Damp
               ***  Starting incremental Fock matrix formation  ***
                      *** Initiating the SOSCF procedure ***
                      *** Re-Reading the Fockian *** 
                      *** Removing any level shift *** 
ITER      Energy       Delta-E        Grad      Rot      Max-DP    RMS-DP
  0   -155.03104887 -155.0310488681  0.000038  0.000038  0.000057  0.000004
               *** Restarting incremental Fock matrix formation ***
  1   -155.03104889  -0.0000000203  0.000008  0.000017  0.000020  0.000002
  2   -155.03104889  -0.0000000014  0.000006  0.000008  0.000017  0.000001
  3   -155.03104889  -0.0000000004  0.000004  0.000005  0.000007  0.000000
                  ***Gradient check signals convergence***
              ***Rediagonalizing the Fockian in SOSCF/NRSCF***

               *****************************************************
               *                     SUCCESS                       *
               *           SCF CONVERGED AFTER   4 CYCLES          *
               *****************************************************

Setting up the final grid:

General Integration Accuracy     IntAcc      ...  4.670
Radial Grid Type                 RadialGrid  ... Gauss-Chebyshev
Angular Grid (max. acc.)         AngularGrid ... Lebedev-302
Angular grid pruning method      GridPruning ... 3 (G Style)
Weight generation scheme         WeightScheme... Becke
Basis function cutoff            BFCut       ...    1.0000e-11
Integration weight cutoff        WCut        ...    1.0000e-14
Grids for H and He will be reduced by one unit

# of grid points (after initial pruning)     ...  39000 (   0.0 sec)
# of grid points (after weights+screening)   ...  36988 (   0.0 sec)
nearest neighbour list constructed           ...    0.0 sec
Grid point re-assignment to atoms done       ...    0.0 sec
Grid point division into batches done        ...    0.2 sec
Reduced shell lists constructed in    0.3 sec

Total number of grid points                  ...    36988
Total number of batches                      ...      582
Average number of points per batch           ...       63
Average number of grid points per atom       ...     4110
Average number of shells per batch           ...    22.85 (76.17%)
Average number of basis functions per batch  ...    41.73 (77.29%)
Average number of large shells per batch     ...    19.33 (84.58%)
Average number of large basis fcns per batch ...    35.15 (84.22%)
Maximum spatial batch extension              ...  18.89, 17.48, 16.05 au
Average spatial batch extension              ...   0.77,  0.79,  0.73 au

Final grid set up in    0.3 sec
Final integration                            ... done (   0.1 sec)
Change in XC energy                          ...     0.000197177
Integrated number of electrons               ...    25.999991714
Previous integrated no of electrons          ...    26.001227432
Total Energy       :         -155.03085171 Eh           -4218.60394 eV
  Last Energy change         ...   -3.8298e-10  Tolerance :   1.0000e-08
  Last MAX-Density change    ...    1.5336e-06  Tolerance :   1.0000e-07
             **** THE GBW FILE WAS UPDATED (ethanol.gbw) ****
             **** DENSITY FILE WAS UPDATED (ethanol.scfp) ****
             **** ENERGY FILE WAS UPDATED (ethanol.en.tmp) ****
             **** THE GBW FILE WAS UPDATED (ethanol.gbw) ****
             **** DENSITY FILE WAS UPDATED (ethanol.scfp) ****
----------------
ORBITAL ENERGIES
----------------

  NO   OCC          E(Eh)            E(eV) 
   0   2.0000     -19.129958      -520.5526 
   1   2.0000     -10.221426      -278.1392 
   2   2.0000     -10.163679      -276.5678 
   3   2.0000      -1.008536       -27.4437 
   4   2.0000      -0.743043       -20.2192 
   5   2.0000      -0.605505       -16.4766 
   6   2.0000      -0.510341       -13.8871 
   7   2.0000      -0.458841       -12.4857 
   8   2.0000      -0.394307       -10.7296 
   9   2.0000      -0.378981       -10.3126 
  10   2.0000      -0.360568        -9.8116 
  11   2.0000      -0.324523        -8.8307 
  12   2.0000      -0.260970        -7.1014 
  13   0.0000       0.077371         2.1054 
  14   0.0000       0.119742         3.2584 
  15   0.0000       0.157353         4.2818 
  16   0.0000       0.162647         4.4258 
  17   0.0000       0.175790         4.7835 
  18   0.0000       0.199670         5.4333 
  19   0.0000       0.215191         5.8556 
  20   0.0000       0.240854         6.5540 
  21   0.0000       0.529922        14.4199 
  22   0.0000       0.559030        15.2120 
  23   0.0000       0.562788        15.3142 
  24   0.0000       0.585606        15.9351 
  25   0.0000       0.671429        18.2705 
  26   0.0000       0.684750        18.6330 
  27   0.0000       0.813125        22.1262 
  28   0.0000       0.851052        23.1583 
  29   0.0000       0.878429        23.9033 
  30   0.0000       0.895794        24.3758 
  31   0.0000       0.908549        24.7229 
  32   0.0000       0.943882        25.6843 
  33   0.0000       1.022709        27.8293 
  34   0.0000       1.029109        28.0035 
  35   0.0000       1.036715        28.2104 
  36   0.0000       1.183388        32.2016 
  37   0.0000       1.416433        38.5431 
  38   0.0000       1.447331        39.3839 
  39   0.0000       1.488588        40.5065 
  40   0.0000       1.732062        47.1318 
  41   0.0000       1.746067        47.5129 
  42   0.0000       1.789809        48.7032 
  43   0.0000       1.925836        52.4047 
  44   0.0000       1.946916        52.9783 
  45   0.0000       2.041827        55.5609 
  46   0.0000       2.167927        58.9923 
  47   0.0000       2.221629        60.4536 
  48   0.0000       2.328260        63.3552 
  49   0.0000       2.382183        64.8225 
  50   0.0000       2.409108        65.5552 
  51   0.0000       2.503727        68.1299 
  52   0.0000       2.617132        71.2158 
  53   0.0000       2.841615        77.3243 
Total SCF time: 0 days 0 hours 0 min 2 sec 

-------------------------   --------------------
FINAL SINGLE POINT ENERGY      -155.030851713226
-------------------------   --------------------

                                *** OPTIMIZATION RUN DONE ***

                            ***************************************
                            *     ORCA property calculations      *
                            ***************************************

                                    ---------------------
                                    Active property flags
                                    ---------------------
   (+) Dipole Moment


------------------------------------------------------------------------------
                       ORCA ELECTRIC PROPERTIES CALCULATION
------------------------------------------------------------------------------

Dipole Moment Calculation                       ... on
Quadrupole Moment Calculation                   ... off
Polarizability Calculation                      ... off
GBWName                                         ... ethanol.gbw
Electron density file                           ... ethanol.scfp
The origin for moment calculation is the CENTER OF MASS  = (-0.093449, -0.060714  0.000000)

-------------
DIPOLE MOMENT
-------------
                                X             Y             Z
Electronic contribution:     -2.61250      -0.72054       0.00000
Nuclear contribution   :      2.50146       1.32455      -0.00000
                        -----------------------------------------
Total Dipole Moment    :     -0.11104       0.60400      -0.00000
                        -----------------------------------------
Magnitude (a.u.)       :      0.61413
Magnitude (Debye)      :      1.56098



--------------------
Rotational spectrum 
--------------------
 
Rotational constants in cm-1:     1.166895     0.311965     0.271319 
Rotational constants in MHz : 34982.632306  9352.468805  8133.941989 

 Dipole components along the rotational axes: 
x,y,z [a.u.] :    -0.080138    -0.608875     0.000000 
x,y,z [Debye]:    -0.203694    -1.547637     0.000000 

 


           ************************************************************
           *        Program running with 4 parallel MPI-processes     *
           *              working on a common directory               *
[...]

Total SCF Hessian time: 0 days 0 hours 0 min 21 sec 

Writing the Hessian file to the disk             ... done


Maximum memory used throughout the entire calculation: 89.2 MB

-----------------------
VIBRATIONAL FREQUENCIES
-----------------------

Scaling factor for frequencies =  1.000000000  (already applied!)

   0:         0.00 cm**-1
   1:         0.00 cm**-1
   2:         0.00 cm**-1
   3:         0.00 cm**-1
   4:         0.00 cm**-1
   5:         0.00 cm**-1
   6:       247.04 cm**-1
   7:       297.95 cm**-1
   8:       417.19 cm**-1
   9:       829.26 cm**-1
  10:       912.87 cm**-1
  11:      1042.86 cm**-1
  12:      1127.33 cm**-1
  13:      1193.54 cm**-1
  14:      1290.79 cm**-1
  15:      1310.06 cm**-1
  16:      1427.67 cm**-1
  17:      1481.10 cm**-1
  18:      1513.41 cm**-1
  19:      1530.82 cm**-1
  20:      1560.08 cm**-1
  21:      2979.46 cm**-1
  22:      3002.62 cm**-1
  23:      3056.45 cm**-1
  24:      3127.85 cm**-1
  25:      3130.25 cm**-1
  26:      3746.34 cm**-1


------------
NORMAL MODES
------------

These modes are the Cartesian displacements weighted by the diagonal matrix
M(i,i)=1/sqrt(m[i]) where m[i] is the mass of the displaced atom
Thus, these vectors are normalized but *not* orthogonal

                  0          1          2          3          4          5    
      0       0.000000   0.000000   0.000000   0.000000   0.000000   0.000000
      1       0.000000   0.000000   0.000000   0.000000   0.000000   0.000000
      2       0.000000   0.000000   0.000000   0.000000   0.000000   0.000000
      3       0.000000   0.000000   0.000000   0.000000   0.000000   0.000000
      4       0.000000   0.000000   0.000000   0.000000   0.000000   0.000000
      5       0.000000   0.000000   0.000000   0.000000   0.000000   0.000000
      6       0.000000   0.000000   0.000000   0.000000   0.000000   0.000000
      7       0.000000   0.000000   0.000000   0.000000   0.000000   0.000000
      8       0.000000   0.000000   0.000000   0.000000   0.000000   0.000000
      9       0.000000   0.000000   0.000000   0.000000   0.000000   0.000000
     10       0.000000   0.000000   0.000000   0.000000   0.000000   0.000000
     11       0.000000   0.000000   0.000000   0.000000   0.000000   0.000000
     12       0.000000   0.000000   0.000000   0.000000   0.000000   0.000000
     13       0.000000   0.000000   0.000000   0.000000   0.000000   0.000000
     14       0.000000   0.000000   0.000000   0.000000   0.000000   0.000000
     15       0.000000   0.000000   0.000000   0.000000   0.000000   0.000000
     16       0.000000   0.000000   0.000000   0.000000   0.000000   0.000000
     17       0.000000   0.000000   0.000000   0.000000   0.000000   0.000000
     18       0.000000   0.000000   0.000000   0.000000   0.000000   0.000000
     19       0.000000   0.000000   0.000000   0.000000   0.000000   0.000000
     20       0.000000   0.000000   0.000000   0.000000   0.000000   0.000000
     21       0.000000   0.000000   0.000000   0.000000   0.000000   0.000000
     22       0.000000   0.000000   0.000000   0.000000   0.000000   0.000000
     23       0.000000   0.000000   0.000000   0.000000   0.000000   0.000000
     24       0.000000   0.000000   0.000000   0.000000   0.000000   0.000000
     25       0.000000   0.000000   0.000000   0.000000   0.000000   0.000000
     26       0.000000   0.000000   0.000000   0.000000   0.000000   0.000000
                  6          7          8          9         10         11    
      0      -0.000000  -0.000000  -0.193911   0.000000  -0.214746  -0.095128
      1       0.000000  -0.000000  -0.054453   0.000000  -0.008778   0.173271
      2       0.015902  -0.025521   0.000000  -0.046844  -0.000000  -0.000000
      3       0.269713   0.173890  -0.490138  -0.350068   0.164138  -0.453286
      4       0.345380   0.135544  -0.102632   0.279081   0.104297   0.096963
      5       0.241487   0.058080  -0.010857   0.187553   0.045437  -0.026700
      6       0.000000   0.000000   0.091458   0.000000  -0.645585   0.162111
      7       0.000000   0.000000  -0.408851  -0.000000   0.521155  -0.159131
      8      -0.520275  -0.288318   0.000000   0.178286   0.000000  -0.000000
      9      -0.269713  -0.173890  -0.490138   0.350068   0.164138  -0.453286
     10      -0.345380  -0.135544  -0.102632  -0.279081   0.104297   0.096963
     11       0.241487   0.058080   0.010857   0.187553  -0.045437   0.026700
     12       0.000000   0.000000  -0.019807   0.000000   0.014765   0.200097
     13      -0.000000   0.000000   0.186304   0.000000  -0.157918  -0.087374
     14       0.050127   0.061358  -0.000000  -0.061467  -0.000000   0.000000
     15       0.025031  -0.011159  -0.076055  -0.271755   0.202967   0.104441
     16       0.078557   0.031310   0.165892   0.350156  -0.116183  -0.117992
     17       0.104669   0.087659  -0.010620   0.219660   0.002995  -0.003310
     18      -0.025031   0.011159  -0.076055   0.271755   0.202967   0.104441
     19      -0.078557  -0.031310   0.165892  -0.350156  -0.116183  -0.117992
     20       0.104669   0.087659   0.010620   0.219660  -0.002995   0.003310
     21      -0.000000   0.000000   0.222596  -0.000000   0.135944  -0.062933
     22       0.000000  -0.000000  -0.058993  -0.000000   0.088904  -0.085682
     23      -0.087341   0.028899  -0.000000   0.020916   0.000000   0.000000
     24       0.000000  -0.000000   0.054480  -0.000000   0.136574   0.283685
     25       0.000000  -0.000000  -0.352426   0.000000   0.077829   0.537610
     26       0.427453  -0.888863   0.000000  -0.034095  -0.000000  -0.000000
                 12         13         14         15         16         17    
      0      -0.078255  -0.000000  -0.021322  -0.000000  -0.108715   0.084478
      1      -0.059039  -0.000000  -0.082475   0.000000   0.072646  -0.014863
      2       0.000000  -0.103277   0.000000   0.091156  -0.000000   0.000000
      3       0.213527  -0.244808   0.218772   0.191631   0.452943  -0.228429
      4       0.078882   0.227946   0.019588  -0.183348  -0.124457  -0.055236
      5       0.065455   0.092035   0.050931  -0.058911  -0.172264  -0.001691
      6      -0.350712  -0.000000  -0.152017   0.000000   0.349189  -0.105211
      7       0.293431   0.000000   0.088956  -0.000000  -0.468375   0.209644
      8      -0.000000   0.205345  -0.000000  -0.119452   0.000000  -0.000000
      9       0.213527   0.244808   0.218772  -0.191631   0.452943  -0.228429
     10       0.078882  -0.227946   0.019588   0.183348  -0.124457  -0.055236
     11      -0.065455   0.092035  -0.050931  -0.058911   0.172264   0.001691
     12       0.183287   0.000000   0.004197   0.000000  -0.052583  -0.167812
     13       0.185595   0.000000   0.091353  -0.000000   0.001838   0.037691
     14      -0.000000   0.171668  -0.000000  -0.033304   0.000000   0.000000
     15       0.410055  -0.252067  -0.331000  -0.641830   0.244477   0.547201
     16       0.158683  -0.495923   0.082312  -0.043944   0.005993   0.056294
     17      -0.016567  -0.165711   0.012035  -0.007078  -0.016545  -0.046655
     18       0.410055   0.252067  -0.331000   0.641830   0.244477   0.547201
     19       0.158683   0.495923   0.082312   0.043944   0.005993   0.056294
     20       0.016567  -0.165711  -0.012035  -0.007078   0.016545   0.046655
     21      -0.119094  -0.000000   0.010628  -0.000000   0.006472   0.014189
     22      -0.121750  -0.000000  -0.067115   0.000000  -0.018378  -0.053158
     23       0.000000  -0.055365  -0.000000  -0.026913   0.000000  -0.000000
     24      -0.257718  -0.000000   0.411835  -0.000000   0.075224   0.235441
     25      -0.344129  -0.000000   0.666702  -0.000000   0.109485   0.359950
     26       0.000000   0.005827  -0.000000  -0.010736   0.000000  -0.000000
                 18         19         20         21         22         23    
      0       0.000000  -0.011065   0.004131  -0.002453  -0.000000  -0.043544
      1      -0.000000  -0.047318   0.014210  -0.004493   0.000000   0.023728
      2      -0.050287   0.000000  -0.000000   0.000000   0.009246   0.000000
      3       0.458744   0.038059  -0.001505  -0.000842  -0.001911   0.027856
      4       0.168153   0.492239  -0.184117   0.004335   0.043774  -0.327697
      5       0.051173   0.370395  -0.138131  -0.010308  -0.059931   0.466114
      6      -0.000000   0.178387  -0.077172   0.033374   0.000000   0.449646
      7      -0.000000  -0.252617   0.111048   0.036183  -0.000000   0.379831
      8       0.714815  -0.000000   0.000000   0.000000   0.003464   0.000000
      9      -0.458744   0.038059  -0.001505  -0.000842   0.001911   0.027856
     10      -0.168153   0.492239  -0.184117   0.004335  -0.043774  -0.327697
     11       0.051173  -0.370395   0.138131   0.010308  -0.059931  -0.466114
     12      -0.000000  -0.030186   0.008009  -0.010711   0.000000   0.001710
     13      -0.000000   0.013483   0.084870   0.064322  -0.000000  -0.001546
     14      -0.021775  -0.000000  -0.000000  -0.000000  -0.095102   0.000000
     15      -0.021159   0.080680  -0.043709   0.039412   0.051093  -0.002723
     16       0.034412  -0.201281  -0.519807  -0.392075  -0.411738   0.006385
     17       0.001780  -0.149759  -0.402468   0.584134   0.563713  -0.008236
     18       0.021159   0.080680  -0.043709   0.039412  -0.051093  -0.002723
     19      -0.034412  -0.201281  -0.519807  -0.392075   0.411738   0.006385
     20       0.001780   0.149759   0.402468  -0.584134   0.563713   0.008236
     21      -0.000000   0.004389   0.001712   0.002769  -0.000000   0.000016
     22      -0.000000   0.004196   0.007480   0.001193  -0.000000  -0.000054
     23       0.001816  -0.000000   0.000000   0.000000   0.000540  -0.000000
     24       0.000000   0.006017  -0.004228   0.002393  -0.000000  -0.001680
     25       0.000000   0.007269  -0.002538   0.007467  -0.000000  -0.000652
     26       0.009135   0.000000   0.000000   0.000000   0.003434   0.000000
                  24         25         26    
      0      -0.046276   0.000000   0.000085
      1      -0.080250   0.000000   0.000554
      2      -0.000000  -0.092652  -0.000000
      3      -0.034281   0.042097  -0.000783
      4       0.229281  -0.414044   0.000418
      5      -0.345283   0.563013  -0.000487
      6       0.620699  -0.000000  -0.000073
      7       0.507596  -0.000000  -0.001528
      8      -0.000000  -0.017283   0.000000
      9      -0.034281  -0.042097  -0.000783
     10       0.229282   0.414044   0.000418
     11       0.345283   0.563013   0.000487
     12      -0.000005   0.000000   0.000085
     13      -0.004898   0.000000  -0.002658
     14      -0.000000  -0.010774   0.000000
     15      -0.002960   0.007806  -0.003164
     16       0.021153  -0.041480  -0.000764
     17      -0.028545   0.059419  -0.001398
     18      -0.002960  -0.007806  -0.003164
     19       0.021153   0.041480  -0.000764
     20       0.028545   0.059419   0.001398
     21       0.000330  -0.000000   0.055409
     22       0.000326  -0.000000  -0.028696
     23       0.000000   0.000244  -0.000000
     24       0.000007   0.000000  -0.873513
     25       0.000951  -0.000000   0.482748
     26       0.000000   0.000941   0.000000


-----------
IR SPECTRUM
-----------

 Mode    freq (cm**-1)   T**2         TX         TY         TZ
-------------------------------------------------------------------
   6:       247.04   34.466986  (  0.000000   0.000000   5.870859)
   7:       297.95   96.413769  (  0.000000  -0.000000  -9.819051)
   8:       417.19   11.191316  ( -3.044491  -1.386504   0.000000)
   9:       829.26    0.010314  (  0.000000   0.000000   0.101559)
  10:       912.87    9.658257  ( -2.535134  -1.797596   0.000000)
  11:      1042.86   55.558431  (  6.112201   4.266080  -0.000000)
  12:      1127.33   24.820349  (  3.899587   3.100576  -0.000000)
  13:      1193.54    4.854407  (  0.000000   0.000000   2.203272)
  14:      1290.79   87.756341  (  6.596236   6.651767  -0.000000)
  15:      1310.06    0.074441  ( -0.000000  -0.000000  -0.272838)
  16:      1427.67    0.420648  (  0.644786  -0.069988  -0.000000)
  17:      1481.10   16.722949  ( -3.749424   1.632413  -0.000000)
  18:      1513.41    4.326897  ( -0.000000  -0.000000   2.080119)
  19:      1530.82    3.098822  (  0.846660   1.543369   0.000000)
  20:      1560.08    2.514889  (  1.404174   0.737011  -0.000000)
  21:      2979.46   74.437754  (  0.072015   8.627431  -0.000000)
  22:      3002.62   77.954983  (  0.000000  -0.000000  -8.829212)
  23:      3056.45   15.778556  ( -3.594850   1.689854   0.000000)
  24:      3127.85   31.634023  ( -2.503356  -5.036589  -0.000002)
  25:      3130.25   34.876842  (  0.000001   0.000002  -5.905662)
  26:      3746.34   10.070398  ( -3.092254   0.712996   0.000000)

The first frequency considered to be a vibration is 6
The total number of vibrations considered is 21


--------------------------
THERMOCHEMISTRY AT 298.15K
--------------------------

Temperature         ... 298.15 K
Pressure            ... 1.00 atm
Total Mass          ... 46.07 AMU

Throughout the following assumptions are being made:
  (1) The electronic state is orbitally nondegenerate
  (2) There are no thermally accessible electronically excited states
  (3) Hindered rotations indicated by low frequency modes are not
      treated as such but are treated as vibrations and this may
      cause some error
  (4) All equations used are the standard statistical mechanics
      equations for an ideal gas
  (5) All vibrations are strictly harmonic

freq.     247.04  E(vib)   ...       0.31 
freq.     297.95  E(vib)   ...       0.27 
freq.     417.19  E(vib)   ...       0.18 
freq.     829.26  E(vib)   ...       0.04 
freq.     912.87  E(vib)   ...       0.03 
freq.    1042.86  E(vib)   ...       0.02 
freq.    1127.33  E(vib)   ...       0.01 
freq.    1193.54  E(vib)   ...       0.01 
freq.    1290.79  E(vib)   ...       0.01 
freq.    1310.06  E(vib)   ...       0.01 
freq.    1427.67  E(vib)   ...       0.00 
freq.    1481.10  E(vib)   ...       0.00 
freq.    1513.41  E(vib)   ...       0.00 
freq.    1530.82  E(vib)   ...       0.00 
freq.    1560.08  E(vib)   ...       0.00 
freq.    2979.46  E(vib)   ...       0.00 
freq.    3002.62  E(vib)   ...       0.00 
freq.    3056.45  E(vib)   ...       0.00 
freq.    3127.85  E(vib)   ...       0.00 
freq.    3130.25  E(vib)   ...       0.00 
freq.    3746.34  E(vib)   ...       0.00 

------------
INNER ENERGY
------------

The inner energy is: U= E(el) + E(ZPE) + E(vib) + E(rot) + E(trans)
    E(el)   - is the total energy from the electronic structure calculation
              = E(kin-el) + E(nuc-el) + E(el-el) + E(nuc-nuc)
    E(ZPE)  - the the zero temperature vibrational energy from the frequency calculation
    E(vib)  - the the finite temperature correction to E(ZPE) due to population
              of excited vibrational states
    E(rot)  - is the rotational thermal energy
    E(trans)- is the translational thermal energy

Summary of contributions to the inner energy U:
Electronic energy                ...   -155.03085171 Eh
Zero point energy                ...      0.08024833 Eh      50.36 kcal/mol
Thermal vibrational correction   ...      0.00144616 Eh       0.91 kcal/mol
Thermal rotational correction    ...      0.00141627 Eh       0.89 kcal/mol
Thermal translational correction ...      0.00141627 Eh       0.89 kcal/mol
-----------------------------------------------------------------------
Total thermal energy                   -154.94632468 Eh


Summary of corrections to the electronic energy:
(perhaps to be used in another calculation)
Total thermal correction                  0.00427870 Eh       2.68 kcal/mol
Non-thermal (ZPE) correction              0.08024833 Eh      50.36 kcal/mol
-----------------------------------------------------------------------
Total correction                          0.08452703 Eh      53.04 kcal/mol


--------
ENTHALPY
--------

The enthalpy is H = U + kB*T
                kB is Boltzmann's constant
Total free energy                 ...   -154.94632468 Eh 
Thermal Enthalpy correction       ...      0.00094421 Eh       0.59 kcal/mol
-----------------------------------------------------------------------
Total Enthalpy                    ...   -154.94538047 Eh


Note: Rotational entropy computed according to Herzberg 
Infrared and Raman Spectra, Chapter V,1, Van Nostrand Reinhold, 1945 
Point Group:  Cs, Symmetry Number:   1  
Rotational constants in cm-1:     1.166895     0.311965     0.271319 

Vibrational entropy computed according to the QRRHO of S. Grimme
Chem.Eur.J. 2012 18 9955


-------
ENTROPY
-------

The entropy contributions are T*S = T*(S(el)+S(vib)+S(rot)+S(trans))
     S(el)   - electronic entropy
     S(vib)  - vibrational entropy
     S(rot)  - rotational entropy
     S(trans)- translational entropy
The entropies will be listed as mutliplied by the temperature to get
units of energy

Electronic entropy                ...      0.00000000 Eh      0.00 kcal/mol
Vibrational entropy               ...      0.00223391 Eh      1.40 kcal/mol
Rotational entropy                ...      0.01060369 Eh      6.65 kcal/mol
Translational entropy             ...      0.01777359 Eh     11.15 kcal/mol
-----------------------------------------------------------------------
Final entropy term                ...      0.03061119 Eh     19.21 kcal/mol

In case the symmetry of your molecule has not been determined correctly
or in case you have a reason to use a different symmetry number we print 
out the resulting rotational entropy values for sn=1,12 :
 --------------------------------------------------------
|  sn= 1 | S(rot)=       0.01060369 Eh      6.65 kcal/mol|
|  sn= 2 | S(rot)=       0.00994923 Eh      6.24 kcal/mol|
|  sn= 3 | S(rot)=       0.00956640 Eh      6.00 kcal/mol|
|  sn= 4 | S(rot)=       0.00929478 Eh      5.83 kcal/mol|
|  sn= 5 | S(rot)=       0.00908409 Eh      5.70 kcal/mol|
|  sn= 6 | S(rot)=       0.00891194 Eh      5.59 kcal/mol|
|  sn= 7 | S(rot)=       0.00876640 Eh      5.50 kcal/mol|
|  sn= 8 | S(rot)=       0.00864032 Eh      5.42 kcal/mol|
|  sn= 9 | S(rot)=       0.00852911 Eh      5.35 kcal/mol|
|  sn=10 | S(rot)=       0.00842963 Eh      5.29 kcal/mol|
|  sn=11 | S(rot)=       0.00833964 Eh      5.23 kcal/mol|
|  sn=12 | S(rot)=       0.00825749 Eh      5.18 kcal/mol|
 --------------------------------------------------------


-------------------
GIBBS FREE ENERGY
-------------------

The Gibbs free energy is G = H - T*S

Total enthalpy                    ...   -154.94538047 Eh 
Total entropy correction          ...     -0.03061119 Eh    -19.21 kcal/mol
-----------------------------------------------------------------------
Final Gibbs free energy         ...   -154.97599166 Eh

For completeness - the Gibbs free energy minus the electronic energy
G-E(el)                           ...      0.05486006 Eh     34.43 kcal/mol


Timings for individual modules:

Sum of individual times         ...       45.959 sec (=   0.766 min)
GTO integral calculation        ...        3.349 sec (=   0.056 min)   7.3 %
SCF iterations                  ...       14.021 sec (=   0.234 min)  30.5 %
SCF Gradient evaluation         ...        4.931 sec (=   0.082 min)  10.7 %
Geometry relaxation             ...        0.888 sec (=   0.015 min)   1.9 %
Analytical frequency calculation...       22.770 sec (=   0.380 min)  49.5 %
                             ****ORCA TERMINATED NORMALLY****
TOTAL RUN TIME: 0 days 0 hours 0 minutes 47 seconds 306 msec
