 Default is to use a total of   4 processors:
                                4 via shared-memory
                                1 via Linda
 Entering Link 1 = d:\study\G09W\l1.exe PID=      1708.
  
 Copyright (c) 1988,1990,1992,1993,1995,1998,2003,2009,2013,
            Gaussian, Inc.  All Rights Reserved.
  
 This is part of the Gaussian(R) 09 program.  It is based on
 the Gaussian(R) 03 system (copyright 2003, Gaussian, Inc.),
 the Gaussian(R) 98 system (copyright 1998, Gaussian, Inc.),
 the Gaussian(R) 94 system (copyright 1995, Gaussian, Inc.),
 the Gaussian 92(TM) system (copyright 1992, Gaussian, Inc.),
 the Gaussian 90(TM) system (copyright 1990, Gaussian, Inc.),
 the Gaussian 88(TM) system (copyright 1988, Gaussian, Inc.),
 the Gaussian 86(TM) system (copyright 1986, Carnegie Mellon
 University), and the Gaussian 82(TM) system (copyright 1983,
 Carnegie Mellon University). Gaussian is a federally registered
 trademark of Gaussian, Inc.
  
 This software contains proprietary and confidential information,
 including trade secrets, belonging to Gaussian, Inc.
  
 This software is provided under written license and may be
 used, copied, transmitted, or stored only in accord with that
 written license.
  
 The following legend is applicable only to US Government
 contracts under FAR:
  
                    RESTRICTED RIGHTS LEGEND
  
 Use, reproduction and disclosure by the US Government is
 subject to restrictions as set forth in subparagraphs (a)
 and (c) of the Commercial Computer Software - Restricted
 Rights clause in FAR 52.227-19.
  
 Gaussian, Inc.
 340 Quinnipiac St., Bldg. 40, Wallingford CT 06492
  
  
 ---------------------------------------------------------------
 Warning -- This program may not be used in any manner that
 competes with the business of Gaussian, Inc. or will provide
 assistance to any competitor of Gaussian, Inc.  The licensee
 of this program is prohibited from giving any competitor of
 Gaussian, Inc. access to this program.  By using this program,
 the user acknowledges that Gaussian, Inc. is engaged in the
 business of creating and licensing software in the field of
 computational chemistry and represents and warrants to the
 licensee that it is not a competitor of Gaussian, Inc. and that
 it will not use this program in any manner prohibited above.
 ---------------------------------------------------------------
  

 Cite this work as:
 Gaussian 09, Revision D.01,
 M. J. Frisch, G. W. Trucks, H. B. Schlegel, G. E. Scuseria, 
 M. A. Robb, J. R. Cheeseman, G. Scalmani, V. Barone, B. Mennucci, 
 G. A. Petersson, H. Nakatsuji, M. Caricato, X. Li, H. P. Hratchian, 
 A. F. Izmaylov, J. Bloino, G. Zheng, J. L. Sonnenberg, M. Hada, 
 M. Ehara, K. Toyota, R. Fukuda, J. Hasegawa, M. Ishida, T. Nakajima, 
 Y. Honda, O. Kitao, H. Nakai, T. Vreven, J. A. Montgomery, Jr., 
 J. E. Peralta, F. Ogliaro, M. Bearpark, J. J. Heyd, E. Brothers, 
 K. N. Kudin, V. N. Staroverov, T. Keith, R. Kobayashi, J. Normand, 
 K. Raghavachari, A. Rendell, J. C. Burant, S. S. Iyengar, J. Tomasi, 
 M. Cossi, N. Rega, J. M. Millam, M. Klene, J. E. Knox, J. B. Cross, 
 V. Bakken, C. Adamo, J. Jaramillo, R. Gomperts, R. E. Stratmann, 
 O. Yazyev, A. J. Austin, R. Cammi, C. Pomelli, J. W. Ochterski, 
 R. L. Martin, K. Morokuma, V. G. Zakrzewski, G. A. Voth, 
 P. Salvador, J. J. Dannenberg, S. Dapprich, A. D. Daniels, 
 O. Farkas, J. B. Foresman, J. V. Ortiz, J. Cioslowski, 
 and D. J. Fox, Gaussian, Inc., Wallingford CT, 2013.
 
 ******************************************
 Gaussian 09:  IA32W-G09RevD.01 24-Apr-2013
                25-Apr-2016 
 ******************************************
 %chk=C:\gtest\ethanol.chk
 ------------------
 # b3lyp/6-31g(d,p)
 ------------------
 1/38=1/1;
 2/12=2,17=6,18=5,40=1/2;
 3/5=1,6=6,7=101,11=2,16=1,25=1,30=1,74=-5/1,2,3;
 4//1;
 5/5=2,38=5/2;
 6/7=2,8=2,9=2,10=2,28=1/1;
 99/5=1,9=1/99;
 -------------------
 Title Card Required
 -------------------
 Symbolic Z-matrix:
 Charge =  0 Multiplicity = 1
 C                     1.17227  -0.41072   0. 
 H                     1.13772  -1.05164   0.88599 
 H                     1.13772  -1.05164  -0.88599 
 H                     2.12205   0.13376   0. 
 C                     0.        0.55538   0. 
 H                     0.05251   1.2082    0.88675 
 H                     0.05251   1.2082   -0.88675 
 O                    -1.19886  -0.21416   0. 
 H                    -1.94521   0.39844   0. 
 
                          Input orientation:                          
 ---------------------------------------------------------------------
 Center     Atomic      Atomic             Coordinates (Angstroms)
 Number     Number       Type             X           Y           Z
 ---------------------------------------------------------------------
      1          6           0        1.172267   -0.410723    0.000000
      2          1           0        1.137718   -1.051639    0.885994
      3          1           0        1.137718   -1.051639   -0.885994
      4          1           0        2.122051    0.133757    0.000000
      5          6           0        0.000000    0.555382    0.000000
      6          1           0        0.052507    1.208203    0.886745
      7          1           0        0.052507    1.208203   -0.886745
      8          8           0       -1.198862   -0.214160    0.000000
      9          1           0       -1.945206    0.398441    0.000000
 ---------------------------------------------------------------------
                    Distance matrix (angstroms):
                    1          2          3          4          5
     1  C    0.000000
     2  H    1.094053   0.000000
     3  H    1.094053   1.771988   0.000000
     4  H    1.094782   1.777375   1.777375   0.000000
     5  C    1.519068   2.159144   2.159144   2.163531   0.000000
     6  H    2.158958   2.506904   3.070370   2.494747   1.102383
     7  H    2.158958   3.070370   2.506904   2.494747   1.102383
     8  O    2.379262   2.635519   2.635519   3.339088   1.424593
     9  H    3.220774   3.520247   3.520247   4.075860   1.951527
                    6          7          8          9
     6  H    0.000000
     7  H    1.773490   0.000000
     8  O    2.091736   2.091736   0.000000
     9  H    2.330856   2.330856   0.965562   0.000000
 Stoichiometry    C2H6O
 Framework group  CS[SG(C2H2O),X(H4)]
 Deg. of freedom    13
 Full point group                 CS      NOp   2
 Largest Abelian subgroup         CS      NOp   2
 Largest concise Abelian subgroup CS      NOp   2
                         Standard orientation:                         
 ---------------------------------------------------------------------
 Center     Atomic      Atomic             Coordinates (Angstroms)
 Number     Number       Type             X           Y           Z
 ---------------------------------------------------------------------
      1          6           0        1.172267   -0.410723    0.000000
      2          1           0        1.137718   -1.051639    0.885994
      3          1           0        1.137718   -1.051639   -0.885994
      4          1           0        2.122051    0.133757    0.000000
      5          6           0        0.000000    0.555382    0.000000
      6          1           0        0.052507    1.208203    0.886745
      7          1           0        0.052507    1.208203   -0.886745
      8          8           0       -1.198862   -0.214160    0.000000
      9          1           0       -1.945206    0.398441    0.000000
 ---------------------------------------------------------------------
 Rotational constants (GHZ):     34.9913715      9.3602833      8.1380932
 Standard basis: 6-31G(d,p) (6D, 7F)
 There are    51 symmetry adapted cartesian basis functions of A'  symmetry.
 There are    24 symmetry adapted cartesian basis functions of A"  symmetry.
 There are    51 symmetry adapted basis functions of A'  symmetry.
 There are    24 symmetry adapted basis functions of A"  symmetry.
    75 basis functions,   126 primitive gaussians,    75 cartesian basis functions
    13 alpha electrons       13 beta electrons
       nuclear repulsion energy        81.6547461781 Hartrees.
 NAtoms=    9 NActive=    9 NUniq=    7 SFac= 1.65D+00 NAtFMM=   60 NAOKFM=F Big=F
 Integral buffers will be    262144 words long.
 Raffenetti 2 integral format.
 Two-electron integral symmetry is turned on.
 One-electron integrals computed using PRISM.
 NBasis=    75 RedAO= T EigKep=  8.03D-03  NBF=    51    24
 NBsUse=    75 1.00D-06 EigRej= -1.00D+00 NBFU=    51    24
 ExpMin= 1.61D-01 ExpMax= 5.48D+03 ExpMxC= 8.25D+02 IAcc=1 IRadAn=         1 AccDes= 0.00D+00
 Harris functional with IExCor=  402 and IRadAn=       1 diagonalized for initial guess.
 HarFok:  IExCor=  402 AccDes= 0.00D+00 IRadAn=         1 IDoV= 1 UseB2=F ITyADJ=14
 ICtDFT=  3500011 ScaDFX=  1.000000  1.000000  1.000000  1.000000
 FoFCou: FMM=F IPFlag=           0 FMFlag=      100000 FMFlg1=           0
         NFxFlg=           0 DoJE=T BraDBF=F KetDBF=T FulRan=T
         wScrn=  0.000000 ICntrl=     500 IOpCl=  0 I1Cent=   200000004 NGrid=           0
         NMat0=    1 NMatS0=      1 NMatT0=    0 NMatD0=    1 NMtDS0=    0 NMtDT0=    0
 Petite list used in FoFCou.
 Initial guess orbital symmetries:
       Occupied  (A') (A') (A') (A') (A') (A') (A') (A") (A') (A')
                 (A") (A') (A")
       Virtual   (A') (A') (A") (A') (A') (A') (A') (A") (A') (A')
                 (A") (A') (A') (A") (A') (A") (A') (A') (A") (A')
                 (A') (A") (A') (A') (A") (A') (A') (A") (A') (A")
                 (A') (A') (A") (A') (A') (A") (A") (A") (A') (A")
                 (A') (A') (A') (A") (A') (A') (A") (A") (A') (A')
                 (A") (A') (A') (A') (A') (A") (A') (A') (A") (A')
                 (A') (A')
 The electronic state of the initial guess is 1-A'.
 Keep R1 ints in memory in symmetry-blocked form, NReq=6174900.
 Requested convergence on RMS density matrix=1.00D-08 within 128 cycles.
 Requested convergence on MAX density matrix=1.00D-06.
 Requested convergence on             energy=1.00D-06.
 No special actions if energy rises.
 Integral accuracy reduced to 1.0D-05 until final iterations.
 Initial convergence to 1.0D-05 achieved.  Increase integral accuracy.
 SCF Done:  E(RB3LYP) =  -155.046213507     A.U. after   12 cycles
            NFock= 12  Conv=0.39D-08     -V/T= 2.0092

 **********************************************************************

            Population analysis using the SCF density.

 **********************************************************************

 Orbital symmetries:
       Occupied  (A') (A') (A') (A') (A') (A') (A') (A") (A') (A')
                 (A") (A') (A")
       Virtual   (A') (A') (A") (A') (A') (A") (A') (A') (A') (A")
                 (A') (A') (A') (A") (A') (A") (A') (A') (A") (A')
                 (A') (A") (A') (A') (A") (A') (A') (A") (A') (A')
                 (A") (A') (A') (A") (A') (A") (A") (A") (A') (A")
                 (A') (A') (A') (A") (A') (A") (A') (A") (A') (A')
                 (A") (A') (A') (A') (A') (A") (A') (A') (A") (A')
                 (A') (A')
 The electronic state is 1-A'.
 Alpha  occ. eigenvalues --  -19.13720 -10.22854 -10.17186  -1.00883  -0.74332
 Alpha  occ. eigenvalues --   -0.60526  -0.50942  -0.45832  -0.39457  -0.37812
 Alpha  occ. eigenvalues --   -0.35973  -0.32491  -0.26184
 Alpha virt. eigenvalues --    0.07834   0.11939   0.15758   0.16253   0.17593
 Alpha virt. eigenvalues --    0.19914   0.21355   0.23939   0.52111   0.55303
 Alpha virt. eigenvalues --    0.55625   0.58034   0.66556   0.66558   0.77991
 Alpha virt. eigenvalues --    0.83444   0.85339   0.87564   0.88952   0.91601
 Alpha virt. eigenvalues --    0.97946   1.00928   1.01111   1.12359   1.33253
 Alpha virt. eigenvalues --    1.35768   1.37959   1.59275   1.61076   1.64516
 Alpha virt. eigenvalues --    1.67796   1.87139   1.94145   1.94215   2.03834
 Alpha virt. eigenvalues --    2.05042   2.06509   2.09176   2.11832   2.27242
 Alpha virt. eigenvalues --    2.29256   2.36166   2.41459   2.45485   2.58722
 Alpha virt. eigenvalues --    2.66586   2.69434   2.72139   2.74104   2.80328
 Alpha virt. eigenvalues --    2.89760   2.90472   2.97212   3.18028   3.28466
 Alpha virt. eigenvalues --    3.37606   3.43170   3.47431   3.52906   3.88339
 Alpha virt. eigenvalues --    4.33107   4.58700
          Condensed to atoms (all electrons):
               1          2          3          4          5          6
     1  C    4.936203   0.383140   0.383140   0.368357   0.382106  -0.042060
     2  H    0.383140   0.591076  -0.032697  -0.028734  -0.031622  -0.008099
     3  H    0.383140  -0.032697   0.591076  -0.028734  -0.031622   0.006331
     4  H    0.368357  -0.028734  -0.028734   0.615897  -0.027993  -0.000223
     5  C    0.382106  -0.031622  -0.031622  -0.027993   4.681313   0.373327
     6  H   -0.042060  -0.008099   0.006331  -0.000223   0.373327   0.697354
     7  H   -0.042060   0.006331  -0.008099  -0.000223   0.373327  -0.062072
     8  O   -0.057626   0.002548   0.002548   0.003087   0.249119  -0.039211
     9  H    0.006980  -0.000074  -0.000074  -0.000335  -0.023907  -0.004424
               7          8          9
     1  C   -0.042060  -0.057626   0.006980
     2  H    0.006331   0.002548  -0.000074
     3  H   -0.008099   0.002548  -0.000074
     4  H   -0.000223   0.003087  -0.000335
     5  C    0.373327   0.249119  -0.023907
     6  H   -0.062072  -0.039211  -0.004424
     7  H    0.697354  -0.039211  -0.004424
     8  O   -0.039211   8.134419   0.279443
     9  H   -0.004424   0.279443   0.442791
 Mulliken charges:
               1
     1  C   -0.318180
     2  H    0.118131
     3  H    0.118131
     4  H    0.098903
     5  C    0.055953
     6  H    0.079076
     7  H    0.079076
     8  O   -0.535114
     9  H    0.304025
 Sum of Mulliken charges =   0.00000
 Mulliken charges with hydrogens summed into heavy atoms:
               1
     1  C    0.016985
     5  C    0.214104
     8  O   -0.231089
 Electronic spatial extent (au):  <R**2>=            193.4190
 Charge=              0.0000 electrons
 Dipole moment (field-independent basis, Debye):
    X=             -0.0154    Y=              1.5304    Z=              0.0000  Tot=              1.5305
 Quadrupole moment (field-independent basis, Debye-Ang):
   XX=            -17.3393   YY=            -19.6903   ZZ=            -19.9255
   XY=             -2.3753   XZ=              0.0000   YZ=              0.0000
 Traceless Quadrupole moment (field-independent basis, Debye-Ang):
   XX=              1.6457   YY=             -0.7053   ZZ=             -0.9404
   XY=             -2.3753   XZ=              0.0000   YZ=              0.0000
 Octapole moment (field-independent basis, Debye-Ang**2):
  XXX=            -14.1429  YYY=             -0.3523  ZZZ=              0.0000  XYY=             -2.0782
  XXY=              4.2634  XXZ=              0.0000  XZZ=             -1.4830  YZZ=             -0.3056
  YYZ=              0.0000  XYZ=              0.0000
 Hexadecapole moment (field-independent basis, Debye-Ang**3):
 XXXX=           -129.5321 YYYY=            -60.0348 ZZZZ=            -32.5705 XXXY=              3.9258
 XXXZ=              0.0000 YYYX=              8.3718 YYYZ=              0.0000 ZZZX=              0.0000
 ZZZY=              0.0000 XXYY=            -34.5274 XXZZ=            -31.8922 YYZZ=            -14.1705
 XXYZ=              0.0000 YYXZ=              0.0000 ZZXY=              2.1717
 N-N= 8.165474617808D+01 E-N=-5.252575317635D+02  KE= 1.536338239890D+02
 Symmetry A'   KE= 1.450371167821D+02
 Symmetry A"   KE= 8.596707206905D+00
 1|1|UNPC-X500|SP|RB3LYP|6-31G(d,p)|C2H6O1|SOBEREVA|25-Apr-2016|0||# b3
 lyp/6-31g(d,p)||Title Card Required||0,1|C,0,1.172267,-0.410723,0.|H,0
 ,1.137718,-1.051639,0.885994|H,0,1.137718,-1.051639,-0.885994|H,0,2.12
 2051,0.133757,0.|C,0,0.,0.555382,0.|H,0,0.052507,1.208203,0.886745|H,0
 ,0.052507,1.208203,-0.886745|O,0,-1.198862,-0.21416,0.|H,0,-1.945206,0
 .398441,0.||Version=IA32W-G09RevD.01|State=1-A'|HF=-155.0462135|RMSD=3
 .922e-009|Dipole=-0.0060451,0.602096,0.|Quadrupole=1.2235633,-0.524369
 3,-0.6991939,-1.7659714,0.,0.|PG=CS [SG(C2H2O1),X(H4)]||@


 WE'RE IN THE POSITION OF A VISITOR FROM ANOTHER
 DIMENSION WHO COMES TO EARTH AND SEES A CHESS MATCH.
 ASSUMING HE KNOWS IT'S A GAME, HE'S GOT TWO PROBLEMS:
 FIRST, FIGURE OUT THE RULES, AND SECOND, FIGURE OUT HOW TO WIN.
 NINETY PERCENT OF SCIENCE (INCLUDING VIRTUALLY ALL OF CHEMISRY)
 IS IN THAT SECOND CATEGORY.  THEY'RE TRYING TO APPLY
 THE LAWS THAT ARE ALREADY KNOWN.

                     -- SHELDON GLASHOW, 1979
 Job cpu time:       0 days  0 hours  0 minutes  4.0 seconds.
 File lengths (MBytes):  RWF=      5 Int=      0 D2E=      0 Chk=      1 Scr=      1
 Normal termination of Gaussian 09 at Mon Apr 25 22:24:58 2016.
