 Entering Gaussian System, Link 0=g16
 Initial command:
 /home/kimariyb/g16/l1.exe "/home/kimariyb/g16/scratch/Gau-167960.inp" -scrdir="/home/kimariyb/g16/scratch/"
 Default is to use a total of  10 processors:
                               10 via shared-memory
                                1 via Linda
 Entering Link 1 = /home/kimariyb/g16/l1.exe PID=    167962.
  
 Copyright (c) 1988,1990,1992,1993,1995,1998,2003,2009,2016,
            Gaussian, Inc.  All Rights Reserved.
  
 This is part of the Gaussian(R) 16 program.  It is based on
 the Gaussian(R) 09 system (copyright 2009, Gaussian, Inc.),
 the Gaussian(R) 03 system (copyright 2003, Gaussian, Inc.),
 the Gaussian(R) 98 system (copyright 1998, Gaussian, Inc.),
 the Gaussian(R) 94 system (copyright 1995, Gaussian, Inc.),
 the Gaussian 92(TM) system (copyright 1992, Gaussian, Inc.),
 the Gaussian 90(TM) system (copyright 1990, Gaussian, Inc.),
 the Gaussian 88(TM) system (copyright 1988, Gaussian, Inc.),
 the Gaussian 86(TM) system (copyright 1986, Carnegie Mellon
 University), and the Gaussian 82(TM) system (copyright 1983,
 Carnegie Mellon University). Gaussian is a federally registered
 trademark of Gaussian, Inc.
  
 This software contains proprietary and confidential information,
 including trade secrets, belonging to Gaussian, Inc.
  
 This software is provided under written license and may be
 used, copied, transmitted, or stored only in accord with that
 written license.
  
 The following legend is applicable only to US Government
 contracts under FAR:
  
                    RESTRICTED RIGHTS LEGEND
  
 Use, reproduction and disclosure by the US Government is
 subject to restrictions as set forth in subparagraphs (a)
 and (c) of the Commercial Computer Software - Restricted
 Rights clause in FAR 52.227-19.
  
 Gaussian, Inc.
 340 Quinnipiac St., Bldg. 40, Wallingford CT 06492
  
  
 ---------------------------------------------------------------
 Warning -- This program may not be used in any manner that
 competes with the business of Gaussian, Inc. or will provide
 assistance to any competitor of Gaussian, Inc.  The licensee
 of this program is prohibited from giving any competitor of
 Gaussian, Inc. access to this program.  By using this program,
 the user acknowledges that Gaussian, Inc. is engaged in the
 business of creating and licensing software in the field of
 computational chemistry and represents and warrants to the
 licensee that it is not a competitor of Gaussian, Inc. and that
 it will not use this program in any manner prohibited above.
 ---------------------------------------------------------------
  

 Cite this work as:
 Gaussian 16, Revision A.03,
 M. J. Frisch, G. W. Trucks, H. B. Schlegel, G. E. Scuseria, 
 M. A. Robb, J. R. Cheeseman, G. Scalmani, V. Barone, 
 G. A. Petersson, H. Nakatsuji, X. Li, M. Caricato, A. V. Marenich, 
 J. Bloino, B. G. Janesko, R. Gomperts, B. Mennucci, H. P. Hratchian, 
 J. V. Ortiz, A. F. Izmaylov, J. L. Sonnenberg, D. Williams-Young, 
 F. Ding, F. Lipparini, F. Egidi, J. Goings, B. Peng, A. Petrone, 
 T. Henderson, D. Ranasinghe, V. G. Zakrzewski, J. Gao, N. Rega, 
 G. Zheng, W. Liang, M. Hada, M. Ehara, K. Toyota, R. Fukuda, 
 J. Hasegawa, M. Ishida, T. Nakajima, Y. Honda, O. Kitao, H. Nakai, 
 T. Vreven, K. Throssell, J. A. Montgomery, Jr., J. E. Peralta, 
 F. Ogliaro, M. J. Bearpark, J. J. Heyd, E. N. Brothers, K. N. Kudin, 
 V. N. Staroverov, T. A. Keith, R. Kobayashi, J. Normand, 
 K. Raghavachari, A. P. Rendell, J. C. Burant, S. S. Iyengar, 
 J. Tomasi, M. Cossi, J. M. Millam, M. Klene, C. Adamo, R. Cammi, 
 J. W. Ochterski, R. L. Martin, K. Morokuma, O. Farkas, 
 J. B. Foresman, and D. J. Fox, Gaussian, Inc., Wallingford CT, 2016.
 
 ******************************************
 Gaussian 16:  ES64L-G16RevA.03 25-Dec-2016
                21-Jul-2023 
 ******************************************
 -----------------------------------------
 # b2plypd3/def2tzvpp scrf=(solvent=water)
 -----------------------------------------
 1/38=1,172=1/1;
 2/12=2,17=6,18=5,40=1/2;
 3/5=44,7=202,11=9,25=1,30=1,70=2201,72=1,74=-60/1,2,3;
 4//1;
 5/5=2,38=5,53=1/2;
 8/10=1/1;
 9/16=-3/6;
 6/7=2,8=2,9=2,10=2/1;
 99/5=1,9=1/99;
 -------------------
 Title Card Required
 -------------------
 Symbolic Z-matrix:
 Charge =  0 Multiplicity = 1
 C                    -1.23515   0.       -0.58871 
 C                     0.13233  0.        -0.05659 
 O                    -1.01004   0.00004   0.83467 
 H                    -1.65818   0.91925  -0.98662 
 H                    -1.65816  -0.91931  -0.98651 
 C                     0.93122  -1.28086  -0.04748 
 H                     1.56062  -1.35061  -0.93896 
 H                     1.58579  -1.31732   0.82842 
 H                     0.27287  -2.15089  -0.02072 
 C                     0.93126   1.28083  -0.0475 
 H                     1.5859    1.31726   0.82835 
 H                     1.56061   1.35061  -0.93901 
 H                     0.27292   2.15085  -0.02066 
 
                          Input orientation:                          
 ---------------------------------------------------------------------
 Center     Atomic      Atomic             Coordinates (Angstroms)
 Number     Number       Type             X           Y           Z
 ---------------------------------------------------------------------
      1          6           0       -1.235146    0.000003   -0.588712
      2          6           0        0.132327   -0.000003   -0.056587
      3          8           0       -1.010039    0.000044    0.834668
      4          1           0       -1.658184    0.919247   -0.986621
      5          1           0       -1.658161   -0.919306   -0.986506
      6          6           0        0.931217   -1.280863   -0.047475
      7          1           0        1.560618   -1.350607   -0.938956
      8          1           0        1.585785   -1.317321    0.828420
      9          1           0        0.272867   -2.150885   -0.020723
     10          6           0        0.931261    1.280829   -0.047500
     11          1           0        1.585902    1.317264    0.828354
     12          1           0        1.560607    1.350606   -0.939009
     13          1           0        0.272919    2.150855   -0.020658
 ---------------------------------------------------------------------
                    Distance matrix (angstroms):
                    1          2          3          4          5
     1  C    0.000000
     2  C    1.467358   0.000000
     3  O    1.441070   1.448908   0.000000
     4  H    1.087337   2.217186   2.140589   0.000000
     5  H    1.087341   2.217141   2.140547   1.838553   0.000000
     6  C    2.574235   1.509606   2.487443   3.525263   2.778017
     7  H    3.124598   2.154698   3.402687   3.938933   3.247895
     8  H    3.420710   2.152000   2.910978   4.338196   3.738390
     9  H    2.687570   2.155767   2.646514   3.753349   2.485637
    10  C    2.574246   1.509605   2.487424   2.778114   3.525256
    11  H    3.420755   2.152021   2.911017   3.738535   4.338192
    12  H    3.124591   2.154715   3.402671   3.247915   3.938937
    13  H    2.687584   2.155747   2.646422   2.485780   3.753375
                    6          7          8          9         10
     6  C    0.000000
     7  H    1.093503   0.000000
     8  H    1.094066   1.767869   0.000000
     9  H    1.091366   1.772540   1.771899   0.000000
    10  C    2.561692   2.848726   2.818869   3.494404   0.000000
    11  H    2.818857   3.200244   2.634585   3.804346   1.094076
    12  H    2.848788   2.701213   3.200355   3.842130   1.093496
    13  H    3.494390   3.842093   3.804313   4.301740   1.091366
                   11         12         13
    11  H    0.000000
    12  H    1.767858   0.000000
    13  H    1.771897   1.772543   0.000000
 Stoichiometry    C4H8O
 Framework group  C1[X(C4H8O)]
 Deg. of freedom    33
 Full point group                 C1      NOp   1
 Largest Abelian subgroup         C1      NOp   1
 Largest concise Abelian subgroup C1      NOp   1
                         Standard orientation:                         
 ---------------------------------------------------------------------
 Center     Atomic      Atomic             Coordinates (Angstroms)
 Number     Number       Type             X           Y           Z
 ---------------------------------------------------------------------
      1          6           0        1.235146   -0.000002   -0.588712
      2          6           0       -0.132327    0.000003   -0.056587
      3          8           0        1.010039   -0.000043    0.834668
      4          1           0        1.658185   -0.919246   -0.986621
      5          1           0        1.658160    0.919307   -0.986506
      6          6           0       -0.931218    1.280862   -0.047475
      7          1           0       -1.560619    1.350606   -0.938956
      8          1           0       -1.585786    1.317320    0.828420
      9          1           0       -0.272869    2.150885   -0.020723
     10          6           0       -0.931260   -1.280830   -0.047500
     11          1           0       -1.585901   -1.317265    0.828354
     12          1           0       -1.560606   -1.350607   -0.939009
     13          1           0       -0.272917   -2.150855   -0.020658
 ---------------------------------------------------------------------
 Rotational constants (GHZ):           6.4900791           5.5172957           3.9212456
 Standard basis: def2TZVPP (5D, 7F)
 There are   300 symmetry adapted cartesian basis functions of A   symmetry.
 There are   267 symmetry adapted basis functions of A   symmetry.
   267 basis functions,   391 primitive gaussians,   300 cartesian basis functions
    20 alpha electrons       20 beta electrons
       nuclear repulsion energy       185.5200897744 Hartrees.
 NAtoms=   13 NActive=   13 NUniq=   13 SFac= 1.00D+00 NAtFMM=   60 NAOKFM=F Big=F
 Integral buffers will be    131072 words long.
 Regular integral format.
 Two-electron integral symmetry is turned on.
 Nuclear repulsion after empirical dispersion term =      185.5135592426 Hartrees.
 ------------------------------------------------------------------------------
 Polarizable Continuum Model (PCM)
 =================================
 Model                : PCM.
 Atomic radii         : UFF (Universal Force Field).
 Polarization charges : Total charges.
 Charge compensation  : None.
 Solution method      : On-the-fly selection.
 Cavity type          : Scaled VdW (van der Waals Surface) (Alpha=1.100).
 Cavity algorithm     : GePol (No added spheres)
                        Default sphere list used, NSphG=   13.
                        Lebedev-Laikov grids with approx.  5.0 points / Ang**2.
                        Smoothing algorithm: York/Karplus (Gamma=1.0000).
                        Polarization charges: spherical gaussians, with
                                              point-specific exponents (IZeta= 3).
                        Self-potential: point-specific (ISelfS= 7).
                        Self-field    : sphere-specific E.n sum rule (ISelfD= 2).
 Solvent              : Water, Eps=  78.355300 Eps(inf)=   1.777849
 ------------------------------------------------------------------------------
 Spheres list:
 ISph  on   Nord     Re0    Alpha      Xe            Ye            Ze
    1   C      1    1.9255  1.100      1.235146     -0.000002     -0.588712
    2   C      2    1.9255  1.100     -0.132327      0.000003     -0.056587
    3   O      3    1.7500  1.100      1.010039     -0.000043      0.834668
    4   H      4    1.4430  1.100      1.658185     -0.919246     -0.986621
    5   H      5    1.4430  1.100      1.658160      0.919307     -0.986506
    6   C      6    1.9255  1.100     -0.931218      1.280862     -0.047475
    7   H      7    1.4430  1.100     -1.560619      1.350606     -0.938956
    8   H      8    1.4430  1.100     -1.585786      1.317320      0.828420
    9   H      9    1.4430  1.100     -0.272869      2.150885     -0.020723
   10   C     10    1.9255  1.100     -0.931260     -1.280830     -0.047500
   11   H     11    1.4430  1.100     -1.585901     -1.317265      0.828354
   12   H     12    1.4430  1.100     -1.560606     -1.350607     -0.939009
   13   H     13    1.4430  1.100     -0.272917     -2.150855     -0.020658
 ------------------------------------------------------------------------------
 One-electron integrals computed using PRISM.
   1 Symmetry operations used in ECPInt.
 ECPInt:  NShTT=    5356 NPrTT=   13664 LenC2=    5345 LenP2D=   11955.
 LDataN:  DoStor=T MaxTD1= 6 Len=  172
 NBasis=   267 RedAO= T EigKep=  1.73D-04  NBF=   267
 NBsUse=   267 1.00D-06 EigRej= -1.00D+00 NBFU=   267
 ExpMin= 9.52D-02 ExpMax= 2.70D+04 ExpMxC= 9.22D+02 IAcc=3 IRadAn=         5 AccDes= 0.00D+00
 Harris functional with IExCor=  419 and IRadAn=       5 diagonalized for initial guess.
 HarFok:  IExCor=  419 AccDes= 0.00D+00 IRadAn=         5 IDoV= 1 UseB2=F ITyADJ=14
 ICtDFT=  3500011 ScaDFX=  1.000000  1.000000  1.000000  1.000000
 FoFCou: FMM=F IPFlag=           0 FMFlag=      100000 FMFlg1=           0
         NFxFlg=           0 DoJE=T BraDBF=F KetDBF=T FulRan=T
         wScrn=  0.000000 ICntrl=       500 IOpCl=  0 I1Cent=   200000004 NGrid=           0
         NMat0=    1 NMatS0=      1 NMatT0=    0 NMatD0=    1 NMtDS0=    0 NMtDT0=    0
 Petite list used in FoFCou.
 Requested convergence on RMS density matrix=1.00D-08 within 128 cycles.
 Requested convergence on MAX density matrix=1.00D-06.
 Requested convergence on             energy=1.00D-06.
 No special actions if energy rises.
 Inv3:  Mode=1 IEnd=     3434700.
 Iteration    1 A*A^-1 deviation from unit magnitude is 3.33D-15 for     65.
 Iteration    1 A*A^-1 deviation from orthogonality  is 1.78D-15 for    881     15.
 Iteration    1 A^-1*A deviation from unit magnitude is 3.11D-15 for     65.
 Iteration    1 A^-1*A deviation from orthogonality  is 2.33D-15 for    936    237.
 Error on total polarization charges =  0.01051
 SCF Done:  E(RB2PLYPD3) =  -232.030215438     A.U. after   11 cycles
            NFock= 11  Conv=0.36D-08     -V/T= 2.0038
 DoSCS=T DFT=T ScalE2(SS,OS)=  0.270000  0.270000
 ExpMin= 9.52D-02 ExpMax= 2.70D+04 ExpMxC= 9.22D+02 IAcc=3 IRadAn=         5 AccDes= 0.00D+00
 HarFok:  IExCor=  205 AccDes= 0.00D+00 IRadAn=         5 IDoV=-2 UseB2=F ITyADJ=14
 ICtDFT= 12500011 ScaDFX=  1.000000  1.000000  1.000000  1.000000
 Range of M.O.s used for correlation:     6   267
 NBasis=   267 NAE=    20 NBE=    20 NFC=     5 NFV=     0
 NROrb=    262 NOA=    15 NOB=    15 NVA=   247 NVB=   247

 **** Warning!!: The largest alpha MO coefficient is  0.18715493D+02

 DoSCS=T DFT=T ScalE2(SS,OS)=  0.270000  0.270000
 Fully direct method using O(OVN) memory.
 JobTyp=1 Pass  1:  I=   1 to  15 NPSUse= 10 ParTrn=T ParDer=T DoDerP=F.
 Spin components of T(2) and E(2):
     alpha-alpha T2 =       0.5242137191D-01 E2=     -0.3597099108D-01
     alpha-beta  T2 =       0.3096864805D+00 E2=     -0.2293156627D+00
     beta-beta   T2 =       0.5242137191D-01 E2=     -0.3597099108D-01
 E2(B2PLYPD3) =    -0.3012576449D+00 E(B2PLYPD3) =    -0.23233147308321D+03

 **********************************************************************

            Population analysis using the SCF density.

 **********************************************************************

 Orbital symmetries:
       Occupied  (A) (A) (A) (A) (A) (A) (A) (A) (A) (A) (A) (A)
                 (A) (A) (A) (A) (A) (A) (A) (A)
       Virtual   (A) (A) (A) (A) (A) (A) (A) (A) (A) (A) (A) (A)
                 (A) (A) (A) (A) (A) (A) (A) (A) (A) (A) (A) (A)
                 (A) (A) (A) (A) (A) (A) (A) (A) (A) (A) (A) (A)
                 (A) (A) (A) (A) (A) (A) (A) (A) (A) (A) (A) (A)
                 (A) (A) (A) (A) (A) (A) (A) (A) (A) (A) (A) (A)
                 (A) (A) (A) (A) (A) (A) (A) (A) (A) (A) (A) (A)
                 (A) (A) (A) (A) (A) (A) (A) (A) (A) (A) (A) (A)
                 (A) (A) (A) (A) (A) (A) (A) (A) (A) (A) (A) (A)
                 (A) (A) (A) (A) (A) (A) (A) (A) (A) (A) (A) (A)
                 (A) (A) (A) (A) (A) (A) (A) (A) (A) (A) (A) (A)
                 (A) (A) (A) (A) (A) (A) (A) (A) (A) (A) (A) (A)
                 (A) (A) (A) (A) (A) (A) (A) (A) (A) (A) (A) (A)
                 (A) (A) (A) (A) (A) (A) (A) (A) (A) (A) (A) (A)
                 (A) (A) (A) (A) (A) (A) (A) (A) (A) (A) (A) (A)
                 (A) (A) (A) (A) (A) (A) (A) (A) (A) (A) (A) (A)
                 (A) (A) (A) (A) (A) (A) (A) (A) (A) (A) (A) (A)
                 (A) (A) (A) (A) (A) (A) (A) (A) (A) (A) (A) (A)
                 (A) (A) (A) (A) (A) (A) (A) (A) (A) (A) (A) (A)
                 (A) (A) (A) (A) (A) (A) (A) (A) (A) (A) (A) (A)
                 (A) (A) (A) (A) (A) (A) (A) (A) (A) (A) (A) (A)
                 (A) (A) (A) (A) (A) (A) (A)
 The electronic state is 1-A.
 Alpha  occ. eigenvalues --  -19.73410 -10.67758 -10.66083 -10.60632 -10.60631
 Alpha  occ. eigenvalues --   -1.20674  -0.88250  -0.80427  -0.76432  -0.65155
 Alpha  occ. eigenvalues --   -0.56881  -0.54346  -0.51060  -0.48295  -0.45824
 Alpha  occ. eigenvalues --   -0.44848  -0.42473  -0.41950  -0.35289  -0.34745
 Alpha virt. eigenvalues --    0.08362   0.12405   0.12502   0.12512   0.14377
 Alpha virt. eigenvalues --    0.14832   0.15971   0.17760   0.19836   0.20103
 Alpha virt. eigenvalues --    0.20502   0.21829   0.23920   0.25958   0.27925
 Alpha virt. eigenvalues --    0.30192   0.32055   0.34136   0.36322   0.39030
 Alpha virt. eigenvalues --    0.40173   0.42249   0.42647   0.44267   0.47670
 Alpha virt. eigenvalues --    0.48204   0.48444   0.49993   0.50836   0.53232
 Alpha virt. eigenvalues --    0.53986   0.54875   0.56177   0.57034   0.58178
 Alpha virt. eigenvalues --    0.61173   0.63807   0.63960   0.66788   0.75032
 Alpha virt. eigenvalues --    0.75689   0.76965   0.82369   0.84989   0.86432
 Alpha virt. eigenvalues --    0.87154   0.94251   0.97019   0.99284   0.99425
 Alpha virt. eigenvalues --    1.00507   1.00777   1.03273   1.03936   1.04832
 Alpha virt. eigenvalues --    1.08627   1.09235   1.12320   1.17299   1.18718
 Alpha virt. eigenvalues --    1.20300   1.22004   1.23156   1.23914   1.24321
 Alpha virt. eigenvalues --    1.30547   1.31801   1.33159   1.36489   1.39086
 Alpha virt. eigenvalues --    1.41433   1.45434   1.47910   1.49359   1.51234
 Alpha virt. eigenvalues --    1.52842   1.52864   1.55320   1.56453   1.56825
 Alpha virt. eigenvalues --    1.61092   1.61817   1.63022   1.63336   1.65349
 Alpha virt. eigenvalues --    1.67566   1.73102   1.74947   1.77116   1.86281
 Alpha virt. eigenvalues --    1.93210   1.94711   1.99021   2.04554   2.10915
 Alpha virt. eigenvalues --    2.17205   2.19963   2.22428   2.24048   2.33588
 Alpha virt. eigenvalues --    2.36580   2.37458   2.52897   2.57656   2.57765
 Alpha virt. eigenvalues --    2.60423   2.60520   2.67802   2.69455   2.70672
 Alpha virt. eigenvalues --    2.76617   2.78289   2.81988   2.83598   2.83675
 Alpha virt. eigenvalues --    2.89586   2.90414   2.91461   2.94428   2.95475
 Alpha virt. eigenvalues --    2.97146   2.99963   3.02653   3.03138   3.04280
 Alpha virt. eigenvalues --    3.06657   3.09877   3.10273   3.16989   3.17539
 Alpha virt. eigenvalues --    3.18308   3.18725   3.24745   3.25086   3.25505
 Alpha virt. eigenvalues --    3.26837   3.31312   3.33337   3.39732   3.40049
 Alpha virt. eigenvalues --    3.43387   3.44201   3.45447   3.47782   3.48694
 Alpha virt. eigenvalues --    3.50354   3.52745   3.56511   3.57814   3.60715
 Alpha virt. eigenvalues --    3.61376   3.66862   3.67145   3.70246   3.73155
 Alpha virt. eigenvalues --    3.74287   3.75743   3.78131   3.81544   3.84228
 Alpha virt. eigenvalues --    3.84876   3.88912   3.93369   3.97500   3.98765
 Alpha virt. eigenvalues --    4.00559   4.02388   4.03623   4.04290   4.06952
 Alpha virt. eigenvalues --    4.08476   4.10901   4.12431   4.12744   4.16973
 Alpha virt. eigenvalues --    4.17376   4.21119   4.22064   4.22632   4.24769
 Alpha virt. eigenvalues --    4.27629   4.28155   4.30997   4.32743   4.35481
 Alpha virt. eigenvalues --    4.41662   4.46191   4.47191   4.48802   4.49395
 Alpha virt. eigenvalues --    4.50678   4.61789   4.63854   4.69535   4.69566
 Alpha virt. eigenvalues --    4.75596   4.77862   4.78252   4.83798   4.83843
 Alpha virt. eigenvalues --    4.90336   4.95174   4.98897   5.03200   5.07428
 Alpha virt. eigenvalues --    5.10164   5.10687   5.16808   5.23513   5.26264
 Alpha virt. eigenvalues --    5.29551   5.32912   5.34617   5.37047   5.41883
 Alpha virt. eigenvalues --    5.43610   5.48341   5.49758   5.50603   5.52913
 Alpha virt. eigenvalues --    5.53220   5.57536   5.58541   5.61295   5.65869
 Alpha virt. eigenvalues --    5.66846   5.78618   5.78668   5.80733   5.86175
 Alpha virt. eigenvalues --    5.90068   5.90675   6.04643   6.13736   6.31094
 Alpha virt. eigenvalues --    6.33049   6.34646   6.89332   7.04556   7.13870
 Alpha virt. eigenvalues --    7.24122   7.46938  23.15895  23.75605  24.05852
 Alpha virt. eigenvalues --   24.18564  44.73864
          Condensed to atoms (all electrons):
               1          2          3          4          5          6
     1  C    4.662439   0.349547   0.196795   0.425691   0.425688  -0.043438
     2  C    0.349547   4.914950   0.127287  -0.021218  -0.021216   0.326782
     3  O    0.196795   0.127287   8.226569  -0.032234  -0.032239  -0.012905
     4  H    0.425691  -0.021218  -0.032234   0.586411  -0.041414   0.003820
     5  H    0.425688  -0.021216  -0.032239  -0.041414   0.586429  -0.002322
     6  C   -0.043438   0.326782  -0.012905   0.003820  -0.002322   4.744349
     7  H   -0.004135  -0.040631   0.005605   0.000803  -0.000865   0.424320
     8  H    0.010128  -0.037468  -0.004697  -0.000413   0.000020   0.420214
     9  H   -0.005204  -0.042385   0.004908   0.000570  -0.002509   0.420304
    10  C   -0.043435   0.326783  -0.012912  -0.002319   0.003820  -0.053065
    11  H    0.010128  -0.037469  -0.004696   0.000020  -0.000413  -0.007830
    12  H   -0.004137  -0.040629   0.005605  -0.000864   0.000803  -0.003552
    13  H   -0.005203  -0.042387   0.004910  -0.002510   0.000570   0.007302
               7          8          9         10         11         12
     1  C   -0.004135   0.010128  -0.005204  -0.043435   0.010128  -0.004137
     2  C   -0.040631  -0.037468  -0.042385   0.326783  -0.037469  -0.040629
     3  O    0.005605  -0.004697   0.004908  -0.012912  -0.004696   0.005605
     4  H    0.000803  -0.000413   0.000570  -0.002319   0.000020  -0.000864
     5  H   -0.000865   0.000020  -0.002509   0.003820  -0.000413   0.000803
     6  C    0.424320   0.420214   0.420304  -0.053065  -0.007830  -0.003552
     7  H    0.576363  -0.023009  -0.016436  -0.003552   0.000491  -0.000650
     8  H   -0.023009   0.582835  -0.024242  -0.007830   0.003463   0.000491
     9  H   -0.016436  -0.024242   0.576417   0.007302  -0.000098  -0.000319
    10  C   -0.003552  -0.007830   0.007302   4.744353   0.420211   0.424322
    11  H    0.000491   0.003463  -0.000098   0.420211   0.582841  -0.023010
    12  H   -0.000650   0.000491  -0.000319   0.424322  -0.023010   0.576357
    13  H   -0.000319  -0.000098  -0.000414   0.420301  -0.024242  -0.016434
              13
     1  C   -0.005203
     2  C   -0.042387
     3  O    0.004910
     4  H   -0.002510
     5  H    0.000570
     6  C    0.007302
     7  H   -0.000319
     8  H   -0.000098
     9  H   -0.000414
    10  C    0.420301
    11  H   -0.024242
    12  H   -0.016434
    13  H    0.576416
 Mulliken charges:
               1
     1  C    0.025137
     2  C    0.238054
     3  O   -0.471996
     4  H    0.083658
     5  H    0.083648
     6  C   -0.223979
     7  H    0.082016
     8  H    0.080605
     9  H    0.082106
    10  C   -0.223979
    11  H    0.080604
    12  H    0.082018
    13  H    0.082108
 Sum of Mulliken charges =  -0.00000
 Mulliken charges with hydrogens summed into heavy atoms:
               1
     1  C    0.192443
     2  C    0.238054
     3  O   -0.471996
     6  C    0.020749
    10  C    0.020751
 Electronic spatial extent (au):  <R**2>=            406.0360
 Charge=             -0.0000 electrons
 Dipole moment (field-independent basis, Debye):
    X=             -1.3513    Y=              0.0001    Z=             -2.4627  Tot=              2.8091
 Quadrupole moment (field-independent basis, Debye-Ang):
   XX=            -31.2906   YY=            -30.4017   ZZ=            -33.3905
   XY=              0.0001   XZ=             -3.3488   YZ=              0.0001
 Traceless Quadrupole moment (field-independent basis, Debye-Ang):
   XX=              0.4036   YY=              1.2926   ZZ=             -1.6962
   XY=              0.0001   XZ=             -3.3488   YZ=              0.0001
 Octapole moment (field-independent basis, Debye-Ang**2):
  XXX=              3.2846  YYY=              0.0001  ZZZ=             -0.1229  XYY=              2.7467
  XXY=             -0.0002  XXZ=             -3.7769  XZZ=             -2.0113  YZZ=             -0.0001
  YYZ=             -0.5711  XYZ=              0.0002
 Hexadecapole moment (field-independent basis, Debye-Ang**3):
 XXXX=           -237.2168 YYYY=           -214.1354 ZZZZ=            -90.8463 XXXY=              0.0000
 XXXZ=             -3.0757 YYYX=              0.0003 YYYZ=             -0.0004 ZZZX=             -0.8847
 ZZZY=              0.0005 XXYY=            -74.1542 XXZZ=            -52.0917 YYZZ=            -51.5315
 XXYZ=              0.0004 YYXZ=             -1.2437 ZZXY=             -0.0003
 N-N= 1.855135592426D+02 E-N=-9.125673970093D+02  KE= 2.311515901059D+02
 1\1\GINC-LOCALHOST\SP\RB2PLYPD3-FC\def2TZVPP\C4H8O1\KIMARIYB\21-Jul-20
 23\0\\# b2plypd3/def2tzvpp scrf=(solvent=water)\\Title Card Required\\
 0,1\C,0,-1.235146,0.000003,-0.588712\C,0,0.132327,-0.000003,-0.056587\
 O,0,-1.010039,0.000044,0.834668\H,0,-1.658184,0.919247,-0.986621\H,0,-
 1.658161,-0.919306,-0.986506\C,0,0.931217,-1.280863,-0.047475\H,0,1.56
 0618,-1.350607,-0.938956\H,0,1.585785,-1.317321,0.82842\H,0,0.272867,-
 2.150885,-0.020723\C,0,0.931261,1.280829,-0.0475\H,0,1.585902,1.317264
 ,0.828354\H,0,1.560607,1.350606,-0.939009\H,0,0.272919,2.150855,-0.020
 658\\Version=ES64L-G16RevA.03\State=1-A\HF=-232.0302154\MP2=-232.33147
 31\RMSD=3.616e-09\PG=C01 [X(C4H8O1)]\\@


 Until you make peace with who you are,
 you'll never be content with what you have.
                           -- Doris Mortman
 Job cpu time:       0 days  0 hours  5 minutes 48.9 seconds.
 Elapsed time:       0 days  0 hours  0 minutes 34.1 seconds.
 File lengths (MBytes):  RWF=     62 Int=      0 D2E=      0 Chk=      6 Scr=      1
 Normal termination of Gaussian 16 at Fri Jul 21 15:21:09 2023.
