 Entering Gaussian System, Link 0=g16
 Initial command:
 /home/kimariyb/g16/l1.exe "/home/kimariyb/g16/scratch/Gau-166639.inp" -scrdir="/home/kimariyb/g16/scratch/"
 Default is to use a total of  10 processors:
                               10 via shared-memory
                                1 via Linda
 Entering Link 1 = /home/kimariyb/g16/l1.exe PID=    166641.
  
 Copyright (c) 1988,1990,1992,1993,1995,1998,2003,2009,2016,
            Gaussian, Inc.  All Rights Reserved.
  
 This is part of the Gaussian(R) 16 program.  It is based on
 the Gaussian(R) 09 system (copyright 2009, Gaussian, Inc.),
 the Gaussian(R) 03 system (copyright 2003, Gaussian, Inc.),
 the Gaussian(R) 98 system (copyright 1998, Gaussian, Inc.),
 the Gaussian(R) 94 system (copyright 1995, Gaussian, Inc.),
 the Gaussian 92(TM) system (copyright 1992, Gaussian, Inc.),
 the Gaussian 90(TM) system (copyright 1990, Gaussian, Inc.),
 the Gaussian 88(TM) system (copyright 1988, Gaussian, Inc.),
 the Gaussian 86(TM) system (copyright 1986, Carnegie Mellon
 University), and the Gaussian 82(TM) system (copyright 1983,
 Carnegie Mellon University). Gaussian is a federally registered
 trademark of Gaussian, Inc.
  
 This software contains proprietary and confidential information,
 including trade secrets, belonging to Gaussian, Inc.
  
 This software is provided under written license and may be
 used, copied, transmitted, or stored only in accord with that
 written license.
  
 The following legend is applicable only to US Government
 contracts under FAR:
  
                    RESTRICTED RIGHTS LEGEND
  
 Use, reproduction and disclosure by the US Government is
 subject to restrictions as set forth in subparagraphs (a)
 and (c) of the Commercial Computer Software - Restricted
 Rights clause in FAR 52.227-19.
  
 Gaussian, Inc.
 340 Quinnipiac St., Bldg. 40, Wallingford CT 06492
  
  
 ---------------------------------------------------------------
 Warning -- This program may not be used in any manner that
 competes with the business of Gaussian, Inc. or will provide
 assistance to any competitor of Gaussian, Inc.  The licensee
 of this program is prohibited from giving any competitor of
 Gaussian, Inc. access to this program.  By using this program,
 the user acknowledges that Gaussian, Inc. is engaged in the
 business of creating and licensing software in the field of
 computational chemistry and represents and warrants to the
 licensee that it is not a competitor of Gaussian, Inc. and that
 it will not use this program in any manner prohibited above.
 ---------------------------------------------------------------
  

 Cite this work as:
 Gaussian 16, Revision A.03,
 M. J. Frisch, G. W. Trucks, H. B. Schlegel, G. E. Scuseria, 
 M. A. Robb, J. R. Cheeseman, G. Scalmani, V. Barone, 
 G. A. Petersson, H. Nakatsuji, X. Li, M. Caricato, A. V. Marenich, 
 J. Bloino, B. G. Janesko, R. Gomperts, B. Mennucci, H. P. Hratchian, 
 J. V. Ortiz, A. F. Izmaylov, J. L. Sonnenberg, D. Williams-Young, 
 F. Ding, F. Lipparini, F. Egidi, J. Goings, B. Peng, A. Petrone, 
 T. Henderson, D. Ranasinghe, V. G. Zakrzewski, J. Gao, N. Rega, 
 G. Zheng, W. Liang, M. Hada, M. Ehara, K. Toyota, R. Fukuda, 
 J. Hasegawa, M. Ishida, T. Nakajima, Y. Honda, O. Kitao, H. Nakai, 
 T. Vreven, K. Throssell, J. A. Montgomery, Jr., J. E. Peralta, 
 F. Ogliaro, M. J. Bearpark, J. J. Heyd, E. N. Brothers, K. N. Kudin, 
 V. N. Staroverov, T. A. Keith, R. Kobayashi, J. Normand, 
 K. Raghavachari, A. P. Rendell, J. C. Burant, S. S. Iyengar, 
 J. Tomasi, M. Cossi, J. M. Millam, M. Klene, C. Adamo, R. Cammi, 
 J. W. Ochterski, R. L. Martin, K. Morokuma, O. Farkas, 
 J. B. Foresman, and D. J. Fox, Gaussian, Inc., Wallingford CT, 2016.
 
 ******************************************
 Gaussian 16:  ES64L-G16RevA.03 25-Dec-2016
                21-Jul-2023 
 ******************************************
 -----------------------------------------------------
 # opt freq b3lyp/6-311g* em=gd3bj scrf(solvent=water)
 -----------------------------------------------------
 1/18=20,19=15,26=3,38=1/1,3;
 2/9=110,12=2,17=6,18=5,40=1/2;
 3/5=4,6=6,7=1,11=2,25=1,30=1,70=2201,71=1,72=1,74=-5,124=41/1,2,3;
 4//1;
 5/5=2,38=5,53=1/2;
 6/7=2,8=2,9=2,10=2,28=1/1;
 7//1,2,3,16;
 1/18=20,19=15,26=3/3(2);
 2/9=110/2;
 99//99;
 2/9=110/2;
 3/5=4,6=6,7=1,11=2,25=1,30=1,70=2205,71=1,72=1,74=-5,124=41/1,2,3;
 4/5=5,16=3,69=1/1;
 5/5=2,38=5,53=1/2;
 7//1,2,3,16;
 1/18=20,19=15,26=3/3(-5);
 2/9=110/2;
 6/7=2,8=2,9=2,10=2,19=2,28=1/1;
 99/9=1/99;
 -------------------
 Title Card Required
 -------------------
 Symbolic Z-matrix:
 Charge =  1 Multiplicity = 1
 O                    -2.81476   1.13603   0. 
 H                    -1.85879   1.04819   0. 
 H                    -3.22796   1.88507   0.43567 
 H                    -3.36882   0.35206   0. 
 

 GradGradGradGradGradGradGradGradGradGradGradGradGradGradGradGradGradGrad
 Berny optimization.
 Initialization pass.
                           ----------------------------
                           !    Initial Parameters    !
                           ! (Angstroms and Degrees)  !
 --------------------------                            --------------------------
 ! Name  Definition              Value          Derivative Info.                !
 --------------------------------------------------------------------------------
 ! R1    R(1,2)                  0.96           estimate D2E/DX2                !
 ! R2    R(1,3)                  0.96           estimate D2E/DX2                !
 ! R3    R(1,4)                  0.96           estimate D2E/DX2                !
 ! A1    A(2,1,3)              120.0            estimate D2E/DX2                !
 ! A2    A(2,1,4)              120.0            estimate D2E/DX2                !
 ! A3    A(3,1,4)              112.8782         estimate D2E/DX2                !
 ! D1    D(2,1,4,3)            150.4901         estimate D2E/DX2                !
 --------------------------------------------------------------------------------
 Trust Radius=3.00D-01 FncErr=1.00D-07 GrdErr=1.00D-06 EigMax=2.50D+02 EigMin=1.00D-04
 Number of steps in this run=     20 maximum allowed number of steps=    100.
 GradGradGradGradGradGradGradGradGradGradGradGradGradGradGradGradGradGrad

                          Input orientation:                          
 ---------------------------------------------------------------------
 Center     Atomic      Atomic             Coordinates (Angstroms)
 Number     Number       Type             X           Y           Z
 ---------------------------------------------------------------------
      1          8           0       -2.814761    1.136035    0.000000
      2          1           0       -1.858788    1.048193    0.000000
      3          1           0       -3.227956    1.885074    0.435672
      4          1           0       -3.368821    0.352059    0.000000
 ---------------------------------------------------------------------
                    Distance matrix (angstroms):
                    1          2          3          4
     1  O    0.000000
     2  H    0.960000   0.000000
     3  H    0.960000   1.662769   0.000000
     4  H    0.960000   1.662769   1.599934   0.000000
 Stoichiometry    H3O(1+)
 Framework group  CS[SG(HO),X(H2)]
 Deg. of freedom     4
 Full point group                 CS      NOp   2
 Largest Abelian subgroup         CS      NOp   2
 Largest concise Abelian subgroup CS      NOp   2
                         Standard orientation:                         
 ---------------------------------------------------------------------
 Center     Atomic      Atomic             Coordinates (Angstroms)
 Number     Number       Type             X           Y           Z
 ---------------------------------------------------------------------
      1          8           0        0.000000    0.041162    0.000000
      2          1           0       -0.960000    0.041162    0.000000
      3          1           0        0.480000   -0.185229   -0.799967
      4          1           0        0.480000   -0.185229    0.799967
 ---------------------------------------------------------------------
 Rotational constants (GHZ):         375.3620081         340.1905423         185.8682596
 Standard basis: 6-311G(d) (5D, 7F)
 There are    20 symmetry adapted cartesian basis functions of A'  symmetry.
 There are     8 symmetry adapted cartesian basis functions of A"  symmetry.
 There are    19 symmetry adapted basis functions of A'  symmetry.
 There are     8 symmetry adapted basis functions of A"  symmetry.
    27 basis functions,    47 primitive gaussians,    28 cartesian basis functions
     5 alpha electrons        5 beta electrons
       nuclear repulsion energy        14.1966810520 Hartrees.
 NAtoms=    4 NActive=    4 NUniq=    3 SFac= 1.78D+00 NAtFMM=   60 NAOKFM=F Big=F
 Integral buffers will be    131072 words long.
 Raffenetti 2 integral format.
 Two-electron integral symmetry is turned on.
 Nuclear repulsion after empirical dispersion term =       14.1956187680 Hartrees.
 ------------------------------------------------------------------------------
 Polarizable Continuum Model (PCM)
 =================================
 Model                : PCM.
 Atomic radii         : UFF (Universal Force Field).
 Polarization charges : Total charges.
 Charge compensation  : None.
 Solution method      : On-the-fly selection.
 Cavity type          : Scaled VdW (van der Waals Surface) (Alpha=1.100).
 Cavity algorithm     : GePol (No added spheres)
                        Default sphere list used, NSphG=    4.
                        Lebedev-Laikov grids with approx.  5.0 points / Ang**2.
                        Smoothing algorithm: York/Karplus (Gamma=1.0000).
                        Polarization charges: spherical gaussians, with
                                              point-specific exponents (IZeta= 3).
                        Self-potential: point-specific (ISelfS= 7).
                        Self-field    : sphere-specific E.n sum rule (ISelfD= 2).
 1st derivatives      : Analytical E(r).r(x)/FMM algorithm (CHGder, D1EAlg=3).
                        Cavity 1st derivative terms included.
 Solvent              : Water, Eps=  78.355300 Eps(inf)=   1.777849
 ------------------------------------------------------------------------------
 Spheres list:
 ISph  on   Nord     Re0    Alpha      Xe            Ye            Ze
    1   O      1    1.7500  1.100     -0.000000      0.041162      0.000000
    2   H      2    1.4430  1.100     -0.960000      0.041162      0.000000
    3   H      3    1.4430  1.100      0.480000     -0.185229     -0.799967
    4   H      4    1.4430  1.100      0.480000     -0.185229      0.799967
 ------------------------------------------------------------------------------
 One-electron integrals computed using PRISM.
 NBasis=    27 RedAO= T EigKep=  4.49D-02  NBF=    19     8
 NBsUse=    27 1.00D-06 EigRej= -1.00D+00 NBFU=    19     8
 ExpMin= 1.03D-01 ExpMax= 8.59D+03 ExpMxC= 1.30D+03 IAcc=3 IRadAn=         5 AccDes= 0.00D+00
 Harris functional with IExCor=  402 and IRadAn=       5 diagonalized for initial guess.
 HarFok:  IExCor=  402 AccDes= 0.00D+00 IRadAn=         5 IDoV= 1 UseB2=F ITyADJ=14
 ICtDFT=  3500011 ScaDFX=  1.000000  1.000000  1.000000  1.000000
 FoFCou: FMM=F IPFlag=           0 FMFlag=      100000 FMFlg1=           0
         NFxFlg=           0 DoJE=T BraDBF=F KetDBF=T FulRan=T
         wScrn=  0.000000 ICntrl=       500 IOpCl=  0 I1Cent=   200000004 NGrid=           0
         NMat0=    1 NMatS0=      1 NMatT0=    0 NMatD0=    1 NMtDS0=    0 NMtDT0=    0
 Petite list used in FoFCou.
 Initial guess orbital symmetries:
       Occupied  (A') (A') (A') (A") (A')
       Virtual   (A') (A") (A') (A") (A') (A') (A') (A") (A') (A')
                 (A") (A') (A') (A') (A") (A') (A') (A") (A') (A")
                 (A') (A')
 The electronic state of the initial guess is 1-A'.
 Keep R1 ints in memory in symmetry-blocked form, NReq=8695634.
 Requested convergence on RMS density matrix=1.00D-08 within 128 cycles.
 Requested convergence on MAX density matrix=1.00D-06.
 Requested convergence on             energy=1.00D-06.
 No special actions if energy rises.
 Inv3:  Mode=1 IEnd=      586092.
 Iteration    1 A*A^-1 deviation from unit magnitude is 2.22D-15 for    200.
 Iteration    1 A*A^-1 deviation from orthogonality  is 1.36D-15 for    301    218.
 Iteration    1 A^-1*A deviation from unit magnitude is 2.44D-15 for    198.
 Iteration    1 A^-1*A deviation from orthogonality  is 1.58D-15 for    372    164.
 Error on total polarization charges = -0.00099
 SCF Done:  E(RB3LYP) =  -76.8381315168     A.U. after    7 cycles
            NFock=  7  Conv=0.50D-08     -V/T= 2.0028

 **********************************************************************

            Population analysis using the SCF density.

 **********************************************************************

 Orbital symmetries:
       Occupied  (A') (A') (A') (A") (A')
       Virtual   (A') (A") (A') (A") (A') (A') (A') (A") (A') (A')
                 (A") (A') (A') (A') (A") (A') (A') (A") (A') (A")
                 (A') (A')
 The electronic state is 1-A'.
 Alpha  occ. eigenvalues --  -19.31038  -1.21815  -0.72757  -0.71106  -0.49466
 Alpha virt. eigenvalues --   -0.03451   0.06263   0.06415   0.28666   0.30203
 Alpha virt. eigenvalues --    0.32876   0.62146   0.74843   0.74987   1.07609
 Alpha virt. eigenvalues --    1.90247   1.90515   1.93731   2.55461   2.56315
 Alpha virt. eigenvalues --    2.96985   3.17717   3.24463   4.56430   4.82656
 Alpha virt. eigenvalues --    4.84609  49.54573
          Condensed to atoms (all electrons):
               1          2          3          4
     1  O    7.981689   0.248654   0.248622   0.248622
     2  H    0.248654   0.189130  -0.008653  -0.008653
     3  H    0.248622  -0.008653   0.197061  -0.011062
     4  H    0.248622  -0.008653  -0.011062   0.197061
 Mulliken charges:
               1
     1  O   -0.727587
     2  H    0.579522
     3  H    0.574033
     4  H    0.574033
 Sum of Mulliken charges =   1.00000
 Mulliken charges with hydrogens summed into heavy atoms:
               1
     1  O    1.000000
 Electronic spatial extent (au):  <R**2>=             18.1414
 Charge=              1.0000 electrons
 Dipole moment (field-independent basis, Debye):
    X=             -0.0532    Y=             -1.0078    Z=             -0.0000  Tot=              1.0092
 Quadrupole moment (field-independent basis, Debye-Ang):
   XX=             -2.2096   YY=             -6.4604   ZZ=             -2.5404
   XY=             -0.7012   XZ=             -0.0000   YZ=              0.0000
 Traceless Quadrupole moment (field-independent basis, Debye-Ang):
   XX=              1.5272   YY=             -2.7236   ZZ=              1.1964
   XY=             -0.7012   XZ=             -0.0000   YZ=              0.0000
 Octapole moment (field-independent basis, Debye-Ang**2):
  XXX=             -1.9122  YYY=             -0.5273  ZZZ=             -0.0000  XYY=              0.0769
  XXY=             -0.2825  XXZ=             -0.0000  XZZ=              1.7086  YZZ=             -0.8112
  YYZ=             -0.0000  XYZ=              0.0000
 Hexadecapole moment (field-independent basis, Debye-Ang**3):
 XXXX=             -2.7830 YYYY=             -4.8036 ZZZZ=             -3.1662 XXXY=             -0.1490
 XXXZ=              0.0000 YYYX=              0.0645 YYYZ=             -0.0000 ZZZX=             -0.0000
 ZZZY=              0.0000 XXYY=             -1.7051 XXZZ=             -0.9980 YYZZ=             -1.6053
 XXYZ=             -0.0000 YYXZ=             -0.0000 ZZXY=             -0.3283
 N-N= 1.419561876797D+01 E-N=-2.056200269712D+02  KE= 7.662617827162D+01
 Symmetry A'   KE= 7.264893012684D+01
 Symmetry A"   KE= 3.977248144781D+00
 D1PCM: PCM CHGder 1st derivatives, ID1Alg=3 FixD1E=F DoIter=F DoCFld=F I1PDM=0.
 Calling FoFJK, ICntrl=      2127 FMM=F ISym2X=1 I1Cent= 0 IOpClX= 0 NMat=1 NMatS=1 NMatT=0.
 ***** Axes restored to original set *****
 -------------------------------------------------------------------
 Center     Atomic                   Forces (Hartrees/Bohr)
 Number     Number              X              Y              Z
 -------------------------------------------------------------------
      1        8          -0.013271984    0.004427640   -0.011288517
      2        1           0.009247092   -0.002113714    0.004447775
      3        1           0.003159464    0.011325956    0.006967928
      4        1           0.000865427   -0.013639882   -0.000127186
 -------------------------------------------------------------------
 Cartesian Forces:  Max     0.013639882 RMS     0.008198386

 GradGradGradGradGradGradGradGradGradGradGradGradGradGradGradGradGradGrad
 Berny optimization.
 FormGI is forming the generalized inverse of G from B-inverse, IUseBI=4.
 Internal  Forces:  Max     0.010642171 RMS     0.008369414
 Search for a local minimum.
 Step number   1 out of a maximum of   20
 All quantities printed in internal units (Hartrees-Bohrs-Radians)
 Mixed Optimization -- RFO/linear search
 Second derivative matrix not updated -- first step.
 The second derivative matrix:
                          R1        R2        R3        A1        A2
           R1           0.55473
           R2           0.00000   0.55473
           R3           0.00000   0.00000   0.55473
           A1           0.00000   0.00000   0.00000   0.16000
           A2           0.00000   0.00000   0.00000   0.00000   0.16000
           A3           0.00000   0.00000   0.00000   0.00000   0.00000
           D1           0.00000   0.00000   0.00000   0.00000   0.00000
                          A3        D1
           A3           0.16000
           D1           0.00000   0.01558
 ITU=  0
     Eigenvalues ---    0.02664   0.16000   0.16000   0.55473   0.55473
     Eigenvalues ---    0.55473
 RFO step:  Lambda=-2.32705322D-03 EMin= 2.66380779D-02
 Linear search not attempted -- first point.
 Iteration  1 RMS(Cart)=  0.03918201 RMS(Int)=  0.00322994
 Iteration  2 RMS(Cart)=  0.00199758 RMS(Int)=  0.00244229
 Iteration  3 RMS(Cart)=  0.00000107 RMS(Int)=  0.00244229
 Iteration  4 RMS(Cart)=  0.00000000 RMS(Int)=  0.00244229
 ClnCor:  largest displacement from symmetrization is 2.92D-03 for atom     4.
 Variable       Old X    -DE/DX   Delta X   Delta X   Delta X     New X
                                 (Linear)    (Quad)   (Total)
    R1        1.81414   0.00940   0.00000   0.01687   0.01686   1.83100
    R2        1.81414   0.01064   0.00000   0.01910   0.02011   1.83424
    R3        1.81414   0.01064   0.00000   0.01910   0.02011   1.83424
    A1        2.09440  -0.00487   0.00000  -0.05441  -0.06036   2.03404
    A2        2.09440  -0.00641   0.00000  -0.06026  -0.06036   2.03404
    A3        1.97010   0.00941   0.00000   0.03674   0.03264   2.00274
    D1        2.62655  -0.00471   0.00000  -0.16251  -0.16067   2.46588
         Item               Value     Threshold  Converged?
 Maximum Force            0.010642     0.000450     NO 
 RMS     Force            0.008369     0.000300     NO 
 Maximum Displacement     0.062369     0.001800     NO 
 RMS     Displacement     0.039256     0.001200     NO 
 Predicted change in Energy=-1.158357D-03
 GradGradGradGradGradGradGradGradGradGradGradGradGradGradGradGradGradGrad

                          Input orientation:                          
 ---------------------------------------------------------------------
 Center     Atomic      Atomic             Coordinates (Angstroms)
 Number     Number       Type             X           Y           Z
 ---------------------------------------------------------------------
      1          8           0       -2.831941    1.146993   -0.033004
      2          1           0       -1.869632    1.044829    0.015343
      3          1           0       -3.213144    1.898111    0.449330
      4          1           0       -3.357093    0.331531    0.004119
 ---------------------------------------------------------------------
                    Distance matrix (angstroms):
                    1          2          3          4
     1  O    0.000000
     2  H    0.968924   0.000000
     3  H    0.970639   1.649685   0.000000
     4  H    0.970639   1.649685   1.634964   0.000000
 Stoichiometry    H3O(1+)
 Framework group  CS[SG(HO),X(H2)]
 Deg. of freedom     4
 Full point group                 CS      NOp   2
 Largest Abelian subgroup         CS      NOp   2
 Largest concise Abelian subgroup CS      NOp   2
                         Standard orientation:                         
 ---------------------------------------------------------------------
 Center     Atomic      Atomic             Coordinates (Angstroms)
 Number     Number       Type             X           Y           Z
 ---------------------------------------------------------------------
      1          8           0        0.000000    0.054032   -0.000000
      2          1           0       -0.954702   -0.111373    0.000000
      3          1           0        0.477351   -0.160443   -0.817482
      4          1           0        0.477351   -0.160443    0.817482
 ---------------------------------------------------------------------
 Rotational constants (GHZ):         349.3336064         341.6321889         185.3487606
 Standard basis: 6-311G(d) (5D, 7F)
 There are    20 symmetry adapted cartesian basis functions of A'  symmetry.
 There are     8 symmetry adapted cartesian basis functions of A"  symmetry.
 There are    19 symmetry adapted basis functions of A'  symmetry.
 There are     8 symmetry adapted basis functions of A"  symmetry.
    27 basis functions,    47 primitive gaussians,    28 cartesian basis functions
     5 alpha electrons        5 beta electrons
       nuclear repulsion energy        14.0573529153 Hartrees.
 NAtoms=    4 NActive=    4 NUniq=    3 SFac= 1.78D+00 NAtFMM=   60 NAOKFM=F Big=F
 Integral buffers will be    131072 words long.
 Raffenetti 2 integral format.
 Two-electron integral symmetry is turned on.
 Nuclear repulsion after empirical dispersion term =       14.0562905317 Hartrees.
 ------------------------------------------------------------------------------
 Polarizable Continuum Model (PCM)
 =================================
 Model                : PCM.
 Atomic radii         : UFF (Universal Force Field).
 Polarization charges : Total charges.
 Charge compensation  : None.
 Solution method      : On-the-fly selection.
 Cavity type          : Scaled VdW (van der Waals Surface) (Alpha=1.100).
 Cavity algorithm     : GePol (No added spheres)
                        Default sphere list used, NSphG=    4.
                        Lebedev-Laikov grids with approx.  5.0 points / Ang**2.
                        Smoothing algorithm: York/Karplus (Gamma=1.0000).
                        Polarization charges: spherical gaussians, with
                                              point-specific exponents (IZeta= 3).
                        Self-potential: point-specific (ISelfS= 7).
                        Self-field    : sphere-specific E.n sum rule (ISelfD= 2).
 1st derivatives      : Analytical E(r).r(x)/FMM algorithm (CHGder, D1EAlg=3).
                        Cavity 1st derivative terms included.
 Solvent              : Water, Eps=  78.355300 Eps(inf)=   1.777849
 ------------------------------------------------------------------------------
 Spheres list:
 ISph  on   Nord     Re0    Alpha      Xe            Ye            Ze
    1   O      1    1.7500  1.100      0.000000      0.054032     -0.000000
    2   H      2    1.4430  1.100     -0.954702     -0.111373     -0.000000
    3   H      3    1.4430  1.100      0.477351     -0.160443     -0.817482
    4   H      4    1.4430  1.100      0.477351     -0.160443      0.817482
 ------------------------------------------------------------------------------
 One-electron integrals computed using PRISM.
 NBasis=    27 RedAO= T EigKep=  4.44D-02  NBF=    19     8
 NBsUse=    27 1.00D-06 EigRej= -1.00D+00 NBFU=    19     8
 Initial guess from the checkpoint file:  "/home/kimariyb/g16/scratch/Gau-166641.chk"
 B after Tr=     0.000000    0.000000   -0.000000
         Rot=    0.998311   -0.000000    0.000000   -0.058094 Ang=  -6.66 deg.
 Initial guess orbital symmetries:
       Occupied  (A') (A') (A') (A") (A')
       Virtual   (A') (A") (A') (A") (A') (A') (A') (A") (A') (A')
                 (A") (A') (A') (A') (A") (A') (A') (A") (A') (A")
                 (A') (A')
 ExpMin= 1.03D-01 ExpMax= 8.59D+03 ExpMxC= 1.30D+03 IAcc=2 IRadAn=         4 AccDes= 0.00D+00
 Harris functional with IExCor=  402 and IRadAn=       4 diagonalized for initial guess.
 HarFok:  IExCor=  402 AccDes= 0.00D+00 IRadAn=         4 IDoV= 1 UseB2=F ITyADJ=14
 ICtDFT=  3500011 ScaDFX=  1.000000  1.000000  1.000000  1.000000
 FoFCou: FMM=F IPFlag=           0 FMFlag=      100000 FMFlg1=           0
         NFxFlg=           0 DoJE=T BraDBF=F KetDBF=T FulRan=T
         wScrn=  0.000000 ICntrl=       500 IOpCl=  0 I1Cent=   200000004 NGrid=           0
         NMat0=    1 NMatS0=      1 NMatT0=    0 NMatD0=    1 NMtDS0=    0 NMtDT0=    0
 Petite list used in FoFCou.
 Keep R1 ints in memory in symmetry-blocked form, NReq=8695634.
 Requested convergence on RMS density matrix=1.00D-08 within 128 cycles.
 Requested convergence on MAX density matrix=1.00D-06.
 Requested convergence on             energy=1.00D-06.
 No special actions if energy rises.
 Inv3:  Mode=1 IEnd=      591408.
 Iteration    1 A*A^-1 deviation from unit magnitude is 2.44D-15 for    208.
 Iteration    1 A*A^-1 deviation from orthogonality  is 1.93D-15 for    318    190.
 Iteration    1 A^-1*A deviation from unit magnitude is 2.44D-15 for    208.
 Iteration    1 A^-1*A deviation from orthogonality  is 1.16D-15 for    169    101.
 Error on total polarization charges = -0.00092
 SCF Done:  E(RB3LYP) =  -76.8399025407     A.U. after    7 cycles
            NFock=  7  Conv=0.87D-08     -V/T= 2.0034
 D1PCM: PCM CHGder 1st derivatives, ID1Alg=3 FixD1E=F DoIter=F DoCFld=F I1PDM=0.
 Calling FoFJK, ICntrl=      2127 FMM=F ISym2X=1 I1Cent= 0 IOpClX= 0 NMat=1 NMatS=1 NMatT=0.
 ***** Axes restored to original set *****
 -------------------------------------------------------------------
 Center     Atomic                   Forces (Hartrees/Bohr)
 Number     Number              X              Y              Z
 -------------------------------------------------------------------
      1        8          -0.005891943    0.002986097   -0.008602268
      2        1           0.001908141   -0.001186016    0.003556324
      3        1           0.002110057    0.000385847    0.002888412
      4        1           0.001873744   -0.002185928    0.002157531
 -------------------------------------------------------------------
 Cartesian Forces:  Max     0.008602268 RMS     0.003665312

 GradGradGradGradGradGradGradGradGradGradGradGradGradGradGradGradGradGrad
 Berny optimization.
 Using GEDIIS/GDIIS optimizer.
 FormGI is forming the generalized inverse of G from B-inverse, IUseBI=4.
 Internal  Forces:  Max     0.004855554 RMS     0.002456748
 Search for a local minimum.
 Step number   2 out of a maximum of   20
 All quantities printed in internal units (Hartrees-Bohrs-Radians)
 Mixed Optimization -- RFO/linear search
 Update second derivatives using D2CorX and points    1    2
 DE= -1.77D-03 DEPred=-1.16D-03 R= 1.53D+00
 TightC=F SS=  1.41D+00  RLast= 1.88D-01 DXNew= 5.0454D-01 5.6331D-01
 Trust test= 1.53D+00 RLast= 1.88D-01 DXMaxT set to 5.05D-01
 The second derivative matrix:
                          R1        R2        R3        A1        A2
           R1           0.56119
           R2           0.01472   0.58177
           R3           0.01472   0.02704   0.58177
           A1           0.01605   0.01553   0.01553   0.13177
           A2           0.01852   0.01887   0.01887  -0.02950   0.12937
           A3           0.02999   0.04390   0.04390  -0.00459  -0.00172
           D1           0.01089   0.01312   0.01312  -0.01077  -0.01072
                          A3        D1
           A3           0.20737
           D1           0.00662   0.01292
 ITU=  1  0
 Use linear search instead of GDIIS.
     Eigenvalues ---    0.01356   0.15815   0.18373   0.55349   0.55473
     Eigenvalues ---    0.62370
 RFO step:  Lambda=-7.86790060D-04 EMin= 1.35649994D-02
 Quartic linear search produced a step of  0.74311.
 Iteration  1 RMS(Cart)=  0.04603987 RMS(Int)=  0.03452628
 Iteration  2 RMS(Cart)=  0.01937376 RMS(Int)=  0.01080959
 Iteration  3 RMS(Cart)=  0.00067165 RMS(Int)=  0.01077882
 Iteration  4 RMS(Cart)=  0.00001334 RMS(Int)=  0.01077881
 Iteration  5 RMS(Cart)=  0.00000033 RMS(Int)=  0.01077881
 ClnCor:  largest displacement from symmetrization is 9.09D-04 for atom     4.
 Variable       Old X    -DE/DX   Delta X   Delta X   Delta X     New X
                                 (Linear)    (Quad)   (Total)
    R1        1.83100   0.00220   0.01253   0.00194   0.01447   1.84548
    R2        1.83424   0.00091   0.01494  -0.00221   0.01303   1.84728
    R3        1.83424   0.00091   0.01494  -0.00221   0.01303   1.84728
    A1        2.03404  -0.00117  -0.04485  -0.03610  -0.10043   1.93360
    A2        2.03404  -0.00312  -0.04485  -0.04496  -0.10043   1.93360
    A3        2.00274   0.00106   0.02426  -0.03421  -0.02129   1.98145
    D1        2.46588  -0.00486  -0.11939  -0.17172  -0.27719   2.18869
         Item               Value     Threshold  Converged?
 Maximum Force            0.004856     0.000450     NO 
 RMS     Force            0.002457     0.000300     NO 
 Maximum Displacement     0.117693     0.001800     NO 
 RMS     Displacement     0.063015     0.001200     NO 
 Predicted change in Energy=-9.641624D-04
 GradGradGradGradGradGradGradGradGradGradGradGradGradGradGradGradGradGrad

                          Input orientation:                          
 ---------------------------------------------------------------------
 Center     Atomic      Atomic             Coordinates (Angstroms)
 Number     Number       Type             X           Y           Z
 ---------------------------------------------------------------------
      1          8           0       -2.852561    1.166587   -0.095285
      2          1           0       -1.894174    1.039334    0.042616
      3          1           0       -3.190766    1.891199    0.466972
      4          1           0       -3.334741    0.324329    0.021678
 ---------------------------------------------------------------------
                    Distance matrix (angstroms):
                    1          2          3          4
     1  O    0.000000
     2  H    0.976584   0.000000
     3  H    0.977536   1.608385   0.000000
     4  H    0.977536   1.608385   1.635267   0.000000
 Stoichiometry    H3O(1+)
 Framework group  CS[SG(HO),X(H2)]
 Deg. of freedom     4
 Full point group                 CS      NOp   2
 Largest Abelian subgroup         CS      NOp   2
 Largest concise Abelian subgroup CS      NOp   2
                         Standard orientation:                         
 ---------------------------------------------------------------------
 Center     Atomic      Atomic             Coordinates (Angstroms)
 Number     Number       Type             X           Y           Z
 ---------------------------------------------------------------------
      1          8           0        0.000000    0.078556    0.000000
      2          1           0       -0.922833   -0.240966   -0.000000
      3          1           0        0.461417   -0.193743   -0.817634
      4          1           0        0.461417   -0.193743    0.817634
 ---------------------------------------------------------------------
 Rotational constants (GHZ):         336.9425054         324.3375188         191.6687426
 Standard basis: 6-311G(d) (5D, 7F)
 There are    20 symmetry adapted cartesian basis functions of A'  symmetry.
 There are     8 symmetry adapted cartesian basis functions of A"  symmetry.
 There are    19 symmetry adapted basis functions of A'  symmetry.
 There are     8 symmetry adapted basis functions of A"  symmetry.
    27 basis functions,    47 primitive gaussians,    28 cartesian basis functions
     5 alpha electrons        5 beta electrons
       nuclear repulsion energy        13.9779546910 Hartrees.
 NAtoms=    4 NActive=    4 NUniq=    3 SFac= 1.78D+00 NAtFMM=   60 NAOKFM=F Big=F
 Integral buffers will be    131072 words long.
 Raffenetti 2 integral format.
 Two-electron integral symmetry is turned on.
 Nuclear repulsion after empirical dispersion term =       13.9768915377 Hartrees.
 ------------------------------------------------------------------------------
 Polarizable Continuum Model (PCM)
 =================================
 Model                : PCM.
 Atomic radii         : UFF (Universal Force Field).
 Polarization charges : Total charges.
 Charge compensation  : None.
 Solution method      : On-the-fly selection.
 Cavity type          : Scaled VdW (van der Waals Surface) (Alpha=1.100).
 Cavity algorithm     : GePol (No added spheres)
                        Default sphere list used, NSphG=    4.
                        Lebedev-Laikov grids with approx.  5.0 points / Ang**2.
                        Smoothing algorithm: York/Karplus (Gamma=1.0000).
                        Polarization charges: spherical gaussians, with
                                              point-specific exponents (IZeta= 3).
                        Self-potential: point-specific (ISelfS= 7).
                        Self-field    : sphere-specific E.n sum rule (ISelfD= 2).
 1st derivatives      : Analytical E(r).r(x)/FMM algorithm (CHGder, D1EAlg=3).
                        Cavity 1st derivative terms included.
 Solvent              : Water, Eps=  78.355300 Eps(inf)=   1.777849
 ------------------------------------------------------------------------------
 Spheres list:
 ISph  on   Nord     Re0    Alpha      Xe            Ye            Ze
    1   O      1    1.7500  1.100      0.000000      0.078556     -0.000000
    2   H      2    1.4430  1.100     -0.922833     -0.240966      0.000000
    3   H      3    1.4430  1.100      0.461417     -0.193743     -0.817634
    4   H      4    1.4430  1.100      0.461417     -0.193743      0.817634
 ------------------------------------------------------------------------------
 One-electron integrals computed using PRISM.
 NBasis=    27 RedAO= T EigKep=  3.98D-02  NBF=    19     8
 NBsUse=    27 1.00D-06 EigRej= -1.00D+00 NBFU=    19     8
 Initial guess from the checkpoint file:  "/home/kimariyb/g16/scratch/Gau-166641.chk"
 B after Tr=    -0.000000   -0.000000    0.000000
         Rot=    0.999512    0.000000   -0.000000   -0.031234 Ang=  -3.58 deg.
 Initial guess orbital symmetries:
       Occupied  (A') (A') (A') (A") (A')
       Virtual   (A') (A") (A') (A") (A') (A') (A') (A") (A') (A')
                 (A") (A') (A') (A') (A") (A') (A') (A") (A') (A")
                 (A') (A')
 ExpMin= 1.03D-01 ExpMax= 8.59D+03 ExpMxC= 1.30D+03 IAcc=2 IRadAn=         4 AccDes= 0.00D+00
 Harris functional with IExCor=  402 and IRadAn=       4 diagonalized for initial guess.
 HarFok:  IExCor=  402 AccDes= 0.00D+00 IRadAn=         4 IDoV= 1 UseB2=F ITyADJ=14
 ICtDFT=  3500011 ScaDFX=  1.000000  1.000000  1.000000  1.000000
 FoFCou: FMM=F IPFlag=           0 FMFlag=      100000 FMFlg1=           0
         NFxFlg=           0 DoJE=T BraDBF=F KetDBF=T FulRan=T
         wScrn=  0.000000 ICntrl=       500 IOpCl=  0 I1Cent=   200000004 NGrid=           0
         NMat0=    1 NMatS0=      1 NMatT0=    0 NMatD0=    1 NMtDS0=    0 NMtDT0=    0
 Petite list used in FoFCou.
 Keep R1 ints in memory in symmetry-blocked form, NReq=8695634.
 Requested convergence on RMS density matrix=1.00D-08 within 128 cycles.
 Requested convergence on MAX density matrix=1.00D-06.
 Requested convergence on             energy=1.00D-06.
 No special actions if energy rises.
 Inv3:  Mode=1 IEnd=      559872.
 Iteration    1 A*A^-1 deviation from unit magnitude is 2.89D-15 for      3.
 Iteration    1 A*A^-1 deviation from orthogonality  is 1.40D-15 for    285    190.
 Iteration    1 A^-1*A deviation from unit magnitude is 2.22D-15 for    292.
 Iteration    1 A^-1*A deviation from orthogonality  is 1.08D-15 for    376     58.
 Error on total polarization charges = -0.00100
 SCF Done:  E(RB3LYP) =  -76.8408201897     A.U. after    8 cycles
            NFock=  8  Conv=0.49D-08     -V/T= 2.0036
 D1PCM: PCM CHGder 1st derivatives, ID1Alg=3 FixD1E=F DoIter=F DoCFld=F I1PDM=0.
 Calling FoFJK, ICntrl=      2127 FMM=F ISym2X=1 I1Cent= 0 IOpClX= 0 NMat=1 NMatS=1 NMatT=0.
 ***** Axes restored to original set *****
 -------------------------------------------------------------------
 Center     Atomic                   Forces (Hartrees/Bohr)
 Number     Number              X              Y              Z
 -------------------------------------------------------------------
      1        8           0.004224807   -0.000492370    0.000366531
      2        1          -0.000842942    0.000389807   -0.001099081
      3        1          -0.002012300   -0.003446140   -0.000627667
      4        1          -0.001369564    0.003548704    0.001360218
 -------------------------------------------------------------------
 Cartesian Forces:  Max     0.004224807 RMS     0.002100291

 GradGradGradGradGradGradGradGradGradGradGradGradGradGradGradGradGradGrad
 Berny optimization.
 Using GEDIIS/GDIIS optimizer.
 FormGI is forming the generalized inverse of G from B-inverse, IUseBI=4.
 Internal  Forces:  Max     0.004970450 RMS     0.002463341
 Search for a local minimum.
 Step number   3 out of a maximum of   20
 All quantities printed in internal units (Hartrees-Bohrs-Radians)
 Mixed Optimization -- RFO/linear search
 Update second derivatives using D2CorX and points    1    2    3
 DE= -9.18D-04 DEPred=-9.64D-04 R= 9.52D-01
 TightC=F SS=  1.41D+00  RLast= 3.13D-01 DXNew= 8.4853D-01 9.3920D-01
 Trust test= 9.52D-01 RLast= 3.13D-01 DXMaxT set to 8.49D-01
 The second derivative matrix:
                          R1        R2        R3        A1        A2
           R1           0.56623
           R2           0.02235   0.59240
           R3           0.02235   0.03766   0.59240
           A1           0.02362   0.02163   0.02163   0.11042
           A2           0.02000   0.01775   0.01775  -0.04687   0.11768
           A3           0.05535   0.07422   0.07422  -0.01737  -0.02410
           D1           0.00001  -0.00048  -0.00048  -0.00762  -0.00310
                          A3        D1
           A3           0.25486
           D1          -0.01642   0.02293
 ITU=  1  1  0
 Use linear search instead of GDIIS.
     Eigenvalues ---    0.02069   0.15758   0.22379   0.55341   0.55473
     Eigenvalues ---    0.66404
 RFO step:  Lambda=-1.01918182D-04 EMin= 2.06926686D-02
 Quartic linear search produced a step of -0.11034.
 Iteration  1 RMS(Cart)=  0.00873467 RMS(Int)=  0.00097413
 Iteration  2 RMS(Cart)=  0.00005550 RMS(Int)=  0.00097000
 Iteration  3 RMS(Cart)=  0.00000010 RMS(Int)=  0.00097000
 ClnCor:  largest displacement from symmetrization is 2.36D-04 for atom     4.
 Variable       Old X    -DE/DX   Delta X   Delta X   Delta X     New X
                                 (Linear)    (Quad)   (Total)
    R1        1.84548  -0.00102  -0.00160   0.00094  -0.00066   1.84482
    R2        1.84728  -0.00223  -0.00144  -0.00057  -0.00209   1.84519
    R3        1.84728  -0.00223  -0.00144  -0.00057  -0.00209   1.84519
    A1        1.93360   0.00182   0.01108  -0.00108   0.01185   1.94546
    A2        1.93360   0.00187   0.01108  -0.00001   0.01185   1.94546
    A3        1.98145  -0.00497   0.00235  -0.02032  -0.01691   1.96454
    D1        2.18869   0.00009   0.03058  -0.01721   0.01215   2.20084
         Item               Value     Threshold  Converged?
 Maximum Force            0.004970     0.000450     NO 
 RMS     Force            0.002463     0.000300     NO 
 Maximum Displacement     0.010443     0.001800     NO 
 RMS     Displacement     0.008703     0.001200     NO 
 Predicted change in Energy=-7.458737D-05
 GradGradGradGradGradGradGradGradGradGradGradGradGradGradGradGradGradGrad

                          Input orientation:                          
 ---------------------------------------------------------------------
 Center     Atomic      Atomic             Coordinates (Angstroms)
 Number     Number       Type             X           Y           Z
 ---------------------------------------------------------------------
      1          8           0       -2.848145    1.165843   -0.094095
      2          1           0       -1.889519    1.039514    0.040477
      3          1           0       -3.195725    1.886226    0.465954
      4          1           0       -3.338735    0.329855    0.023644
 ---------------------------------------------------------------------
                    Distance matrix (angstroms):
                    1          2          3          4
     1  O    0.000000
     2  H    0.976234   0.000000
     3  H    0.976431   1.613730   0.000000
     4  H    0.976431   1.613730   1.624309   0.000000
 Stoichiometry    H3O(1+)
 Framework group  CS[SG(HO),X(H2)]
 Deg. of freedom     4
 Full point group                 CS      NOp   2
 Largest Abelian subgroup         CS      NOp   2
 Largest concise Abelian subgroup CS      NOp   2
                         Standard orientation:                         
 ---------------------------------------------------------------------
 Center     Atomic      Atomic             Coordinates (Angstroms)
 Number     Number       Type             X           Y           Z
 ---------------------------------------------------------------------
      1          8           0        0.000000    0.077831    0.000000
      2          1           0       -0.929554   -0.220437   -0.000000
      3          1           0        0.464777   -0.201104   -0.812155
      4          1           0        0.464777   -0.201104    0.812155
 ---------------------------------------------------------------------
 Rotational constants (GHZ):         333.8948228         328.9039150         191.7176942
 Standard basis: 6-311G(d) (5D, 7F)
 There are    20 symmetry adapted cartesian basis functions of A'  symmetry.
 There are     8 symmetry adapted cartesian basis functions of A"  symmetry.
 There are    19 symmetry adapted basis functions of A'  symmetry.
 There are     8 symmetry adapted basis functions of A"  symmetry.
    27 basis functions,    47 primitive gaussians,    28 cartesian basis functions
     5 alpha electrons        5 beta electrons
       nuclear repulsion energy        13.9893157595 Hartrees.
 NAtoms=    4 NActive=    4 NUniq=    3 SFac= 1.78D+00 NAtFMM=   60 NAOKFM=F Big=F
 Integral buffers will be    131072 words long.
 Raffenetti 2 integral format.
 Two-electron integral symmetry is turned on.
 Nuclear repulsion after empirical dispersion term =       13.9882526141 Hartrees.
 ------------------------------------------------------------------------------
 Polarizable Continuum Model (PCM)
 =================================
 Model                : PCM.
 Atomic radii         : UFF (Universal Force Field).
 Polarization charges : Total charges.
 Charge compensation  : None.
 Solution method      : On-the-fly selection.
 Cavity type          : Scaled VdW (van der Waals Surface) (Alpha=1.100).
 Cavity algorithm     : GePol (No added spheres)
                        Default sphere list used, NSphG=    4.
                        Lebedev-Laikov grids with approx.  5.0 points / Ang**2.
                        Smoothing algorithm: York/Karplus (Gamma=1.0000).
                        Polarization charges: spherical gaussians, with
                                              point-specific exponents (IZeta= 3).
                        Self-potential: point-specific (ISelfS= 7).
                        Self-field    : sphere-specific E.n sum rule (ISelfD= 2).
 1st derivatives      : Analytical E(r).r(x)/FMM algorithm (CHGder, D1EAlg=3).
                        Cavity 1st derivative terms included.
 Solvent              : Water, Eps=  78.355300 Eps(inf)=   1.777849
 ------------------------------------------------------------------------------
 Spheres list:
 ISph  on   Nord     Re0    Alpha      Xe            Ye            Ze
    1   O      1    1.7500  1.100      0.000000      0.077831     -0.000000
    2   H      2    1.4430  1.100     -0.929554     -0.220437     -0.000000
    3   H      3    1.4430  1.100      0.464777     -0.201104     -0.812155
    4   H      4    1.4430  1.100      0.464777     -0.201104      0.812155
 ------------------------------------------------------------------------------
 One-electron integrals computed using PRISM.
 NBasis=    27 RedAO= T EigKep=  3.99D-02  NBF=    19     8
 NBsUse=    27 1.00D-06 EigRej= -1.00D+00 NBFU=    19     8
 Initial guess from the checkpoint file:  "/home/kimariyb/g16/scratch/Gau-166641.chk"
 B after Tr=     0.000000    0.000000   -0.000000
         Rot=    0.999961    0.000000   -0.000000    0.008881 Ang=   1.02 deg.
 Initial guess orbital symmetries:
       Occupied  (A') (A') (A") (A') (A')
       Virtual   (A') (A') (A") (A') (A") (A') (A') (A') (A") (A')
                 (A') (A") (A') (A") (A') (A') (A") (A') (A') (A')
                 (A") (A')
 Keep R1 ints in memory in symmetry-blocked form, NReq=8695634.
 Requested convergence on RMS density matrix=1.00D-08 within 128 cycles.
 Requested convergence on MAX density matrix=1.00D-06.
 Requested convergence on             energy=1.00D-06.
 No special actions if energy rises.
 Inv3:  Mode=1 IEnd=      565068.
 Iteration    1 A*A^-1 deviation from unit magnitude is 2.55D-15 for    189.
 Iteration    1 A*A^-1 deviation from orthogonality  is 1.67D-15 for    363    202.
 Iteration    1 A^-1*A deviation from unit magnitude is 2.66D-15 for    181.
 Iteration    1 A^-1*A deviation from orthogonality  is 1.47D-15 for    343    241.
 Error on total polarization charges = -0.00101
 SCF Done:  E(RB3LYP) =  -76.8409185297     A.U. after    7 cycles
            NFock=  7  Conv=0.69D-09     -V/T= 2.0036
 D1PCM: PCM CHGder 1st derivatives, ID1Alg=3 FixD1E=F DoIter=F DoCFld=F I1PDM=0.
 Calling FoFJK, ICntrl=      2127 FMM=F ISym2X=1 I1Cent= 0 IOpClX= 0 NMat=1 NMatS=1 NMatT=0.
 ***** Axes restored to original set *****
 -------------------------------------------------------------------
 Center     Atomic                   Forces (Hartrees/Bohr)
 Number     Number              X              Y              Z
 -------------------------------------------------------------------
      1        8           0.001876182   -0.000141969   -0.000107066
      2        1          -0.001049253    0.000186594   -0.000317322
      3        1          -0.000571489   -0.001742083   -0.000276552
      4        1          -0.000255440    0.001697459    0.000700941
 -------------------------------------------------------------------
 Cartesian Forces:  Max     0.001876182 RMS     0.000985900

 GradGradGradGradGradGradGradGradGradGradGradGradGradGradGradGradGradGrad
 Berny optimization.
 Using GEDIIS/GDIIS optimizer.
 FormGI is forming the generalized inverse of G from B-inverse, IUseBI=4.
 Internal  Forces:  Max     0.002113528 RMS     0.001171842
 Search for a local minimum.
 Step number   4 out of a maximum of   20
 All quantities printed in internal units (Hartrees-Bohrs-Radians)
 Mixed Optimization -- RFO/linear search
 Update second derivatives using D2CorX and points    1    2    3    4
 DE= -9.83D-05 DEPred=-7.46D-05 R= 1.32D+00
 TightC=F SS=  1.41D+00  RLast= 2.69D-02 DXNew= 1.4270D+00 8.0697D-02
 Trust test= 1.32D+00 RLast= 2.69D-02 DXMaxT set to 8.49D-01
 The second derivative matrix:
                          R1        R2        R3        A1        A2
           R1           0.56338
           R2           0.00856   0.56919
           R3           0.00856   0.01445   0.56919
           A1           0.02782   0.01883   0.01883   0.11687
           A2           0.02697   0.01816   0.01816  -0.03970   0.12575
           A3           0.01281   0.01394   0.01394  -0.02289  -0.02573
           D1           0.00370   0.00338   0.00338  -0.00642  -0.00143
                          A3        D1
           A3           0.12148
           D1          -0.01315   0.02397
 ITU=  1  1  1  0
 Use linear search instead of GDIIS.
     Eigenvalues ---    0.02099   0.14089   0.15869   0.55473   0.55804
     Eigenvalues ---    0.59138
 RFO step:  Lambda=-3.20682067D-05 EMin= 2.09948782D-02
 Quartic linear search produced a step of  0.46436.
 Iteration  1 RMS(Cart)=  0.00883066 RMS(Int)=  0.00015095
 Iteration  2 RMS(Cart)=  0.00009280 RMS(Int)=  0.00011722
 Iteration  3 RMS(Cart)=  0.00000000 RMS(Int)=  0.00011722
 ClnCor:  largest displacement from symmetrization is 2.27D-04 for atom     4.
 Variable       Old X    -DE/DX   Delta X   Delta X   Delta X     New X
                                 (Linear)    (Quad)   (Total)
    R1        1.84482  -0.00109  -0.00031  -0.00053  -0.00084   1.84397
    R2        1.84519  -0.00125  -0.00097  -0.00019  -0.00124   1.84395
    R3        1.84519  -0.00125  -0.00097  -0.00019  -0.00124   1.84395
    A1        1.94546   0.00070   0.00550  -0.00981  -0.00439   1.94107
    A2        1.94546   0.00052   0.00550  -0.00954  -0.00439   1.94107
    A3        1.96454  -0.00211  -0.00785  -0.01260  -0.02052   1.94402
    D1        2.20084  -0.00032   0.00564  -0.03074  -0.02490   2.17594
         Item               Value     Threshold  Converged?
 Maximum Force            0.002114     0.000450     NO 
 RMS     Force            0.001172     0.000300     NO 
 Maximum Displacement     0.013828     0.001800     NO 
 RMS     Displacement     0.008894     0.001200     NO 
 Predicted change in Energy=-2.434698D-05
 GradGradGradGradGradGradGradGradGradGradGradGradGradGradGradGradGradGrad

                          Input orientation:                          
 ---------------------------------------------------------------------
 Center     Atomic      Atomic             Coordinates (Angstroms)
 Number     Number       Type             X           Y           Z
 ---------------------------------------------------------------------
      1          8           0       -2.846704    1.167790   -0.101412
      2          1           0       -1.890208    1.039016    0.042451
      3          1           0       -3.196584    1.879609    0.466952
      4          1           0       -3.338513    0.335012    0.027989
 ---------------------------------------------------------------------
                    Distance matrix (angstroms):
                    1          2          3          4
     1  O    0.000000
     2  H    0.975789   0.000000
     3  H    0.975777   1.610409   0.000000
     4  H    0.975777   1.610409   1.612022   0.000000
 Stoichiometry    H3O(1+)
 Framework group  CS[SG(HO),X(H2)]
 Deg. of freedom     4
 Full point group                 CS      NOp   2
 Largest Abelian subgroup         CS      NOp   2
 Largest concise Abelian subgroup CS      NOp   2
                         Standard orientation:                         
 ---------------------------------------------------------------------
 Center     Atomic      Atomic             Coordinates (Angstroms)
 Number     Number       Type             X           Y           Z
 ---------------------------------------------------------------------
      1          8           0        0.000000    0.080488   -0.000000
      2          1           0       -0.929457   -0.216621    0.000000
      3          1           0        0.464729   -0.213644   -0.806011
      4          1           0        0.464729   -0.213644    0.806011
 ---------------------------------------------------------------------
 Rotational constants (GHZ):         330.8630059         330.1085542         193.2277606
 Standard basis: 6-311G(d) (5D, 7F)
 There are    20 symmetry adapted cartesian basis functions of A'  symmetry.
 There are     8 symmetry adapted cartesian basis functions of A"  symmetry.
 There are    19 symmetry adapted basis functions of A'  symmetry.
 There are     8 symmetry adapted basis functions of A"  symmetry.
    27 basis functions,    47 primitive gaussians,    28 cartesian basis functions
     5 alpha electrons        5 beta electrons
       nuclear repulsion energy        14.0009434560 Hartrees.
 NAtoms=    4 NActive=    4 NUniq=    3 SFac= 1.78D+00 NAtFMM=   60 NAOKFM=F Big=F
 Integral buffers will be    131072 words long.
 Raffenetti 2 integral format.
 Two-electron integral symmetry is turned on.
 Nuclear repulsion after empirical dispersion term =       13.9998801779 Hartrees.
 ------------------------------------------------------------------------------
 Polarizable Continuum Model (PCM)
 =================================
 Model                : PCM.
 Atomic radii         : UFF (Universal Force Field).
 Polarization charges : Total charges.
 Charge compensation  : None.
 Solution method      : On-the-fly selection.
 Cavity type          : Scaled VdW (van der Waals Surface) (Alpha=1.100).
 Cavity algorithm     : GePol (No added spheres)
                        Default sphere list used, NSphG=    4.
                        Lebedev-Laikov grids with approx.  5.0 points / Ang**2.
                        Smoothing algorithm: York/Karplus (Gamma=1.0000).
                        Polarization charges: spherical gaussians, with
                                              point-specific exponents (IZeta= 3).
                        Self-potential: point-specific (ISelfS= 7).
                        Self-field    : sphere-specific E.n sum rule (ISelfD= 2).
 1st derivatives      : Analytical E(r).r(x)/FMM algorithm (CHGder, D1EAlg=3).
                        Cavity 1st derivative terms included.
 Solvent              : Water, Eps=  78.355300 Eps(inf)=   1.777849
 ------------------------------------------------------------------------------
 Spheres list:
 ISph  on   Nord     Re0    Alpha      Xe            Ye            Ze
    1   O      1    1.7500  1.100      0.000000      0.080488     -0.000000
    2   H      2    1.4430  1.100     -0.929457     -0.216621      0.000000
    3   H      3    1.4430  1.100      0.464729     -0.213644     -0.806011
    4   H      4    1.4430  1.100      0.464729     -0.213644      0.806011
 ------------------------------------------------------------------------------
 One-electron integrals computed using PRISM.
 NBasis=    27 RedAO= T EigKep=  3.91D-02  NBF=    19     8
 NBsUse=    27 1.00D-06 EigRej= -1.00D+00 NBFU=    19     8
 Initial guess from the checkpoint file:  "/home/kimariyb/g16/scratch/Gau-166641.chk"
 B after Tr=     0.000000    0.000000    0.000000
         Rot=    0.999987    0.000000   -0.000000    0.005137 Ang=   0.59 deg.
 Initial guess orbital symmetries:
       Occupied  (A') (A') (A") (A') (A')
       Virtual   (A') (A') (A") (A') (A") (A') (A') (A') (A") (A')
                 (A') (A") (A') (A") (A') (A') (A") (A') (A') (A')
                 (A") (A')
 Keep R1 ints in memory in symmetry-blocked form, NReq=8695634.
 Requested convergence on RMS density matrix=1.00D-08 within 128 cycles.
 Requested convergence on MAX density matrix=1.00D-06.
 Requested convergence on             energy=1.00D-06.
 No special actions if energy rises.
 Inv3:  Mode=1 IEnd=      570288.
 Iteration    1 A*A^-1 deviation from unit magnitude is 2.22D-15 for    197.
 Iteration    1 A*A^-1 deviation from orthogonality  is 1.44D-15 for    315      9.
 Iteration    1 A^-1*A deviation from unit magnitude is 2.44D-15 for     18.
 Iteration    1 A^-1*A deviation from orthogonality  is 1.53D-15 for    370     67.
 Error on total polarization charges = -0.00101
 SCF Done:  E(RB3LYP) =  -76.8409376682     A.U. after    7 cycles
            NFock=  7  Conv=0.33D-08     -V/T= 2.0035
 D1PCM: PCM CHGder 1st derivatives, ID1Alg=3 FixD1E=F DoIter=F DoCFld=F I1PDM=0.
 Calling FoFJK, ICntrl=      2127 FMM=F ISym2X=1 I1Cent= 0 IOpClX= 0 NMat=1 NMatS=1 NMatT=0.
 ***** Axes restored to original set *****
 -------------------------------------------------------------------
 Center     Atomic                   Forces (Hartrees/Bohr)
 Number     Number              X              Y              Z
 -------------------------------------------------------------------
      1        8           0.000567826   -0.000326139    0.000964006
      2        1          -0.000283183    0.000151624   -0.000441965
      3        1          -0.000149691    0.000007051   -0.000283815
      4        1          -0.000134951    0.000167464   -0.000238226
 -------------------------------------------------------------------
 Cartesian Forces:  Max     0.000964006 RMS     0.000393979

 GradGradGradGradGradGradGradGradGradGradGradGradGradGradGradGradGradGrad
 Berny optimization.
 Using GEDIIS/GDIIS optimizer.
 FormGI is forming the generalized inverse of G from B-inverse, IUseBI=4.
 Internal  Forces:  Max     0.000476041 RMS     0.000275592
 Search for a local minimum.
 Step number   5 out of a maximum of   20
 All quantities printed in internal units (Hartrees-Bohrs-Radians)
 Mixed Optimization -- En-DIIS/RFO-DIIS
 Update second derivatives using D2CorX and points    1    2    3    4    5
 DE= -1.91D-05 DEPred=-2.43D-05 R= 7.86D-01
 TightC=F SS=  1.41D+00  RLast= 3.29D-02 DXNew= 1.4270D+00 9.8735D-02
 Trust test= 7.86D-01 RLast= 3.29D-02 DXMaxT set to 8.49D-01
 The second derivative matrix:
                          R1        R2        R3        A1        A2
           R1           0.56669
           R2           0.00625   0.56375
           R3           0.00625   0.00901   0.56375
           A1           0.03002   0.01792   0.01792   0.11812
           A2           0.02967   0.02228   0.02228  -0.04355   0.11931
           A3          -0.00246   0.00091   0.00091  -0.02920  -0.02005
           D1           0.00131   0.00905   0.00905  -0.01563  -0.00622
                          A3        D1
           A3           0.11312
           D1           0.00382   0.03160
 ITU=  1  1  1  1  0
 Use linear search instead of GDIIS.
     Eigenvalues ---    0.02389   0.13165   0.15870   0.55473   0.56050
     Eigenvalues ---    0.58323
 RFO step:  Lambda=-1.05745348D-05 EMin= 2.38931136D-02
 Quartic linear search produced a step of -0.20581.
 Iteration  1 RMS(Cart)=  0.00484682 RMS(Int)=  0.00004410
 Iteration  2 RMS(Cart)=  0.00003483 RMS(Int)=  0.00002364
 Iteration  3 RMS(Cart)=  0.00000000 RMS(Int)=  0.00002364
 ClnCor:  largest displacement from symmetrization is 1.96D-04 for atom     4.
 Variable       Old X    -DE/DX   Delta X   Delta X   Delta X     New X
                                 (Linear)    (Quad)   (Total)
    R1        1.84397  -0.00035   0.00017  -0.00168  -0.00150   1.84247
    R2        1.84395  -0.00011   0.00025  -0.00133  -0.00114   1.84281
    R3        1.84395  -0.00011   0.00025  -0.00133  -0.00114   1.84281
    A1        1.94107   0.00010   0.00090   0.00722   0.00820   1.94927
    A2        1.94107   0.00037   0.00090   0.00751   0.00820   1.94927
    A3        1.94402   0.00009   0.00422  -0.00080   0.00344   1.94746
    D1        2.17594   0.00048   0.00512   0.01443   0.01962   2.19556
         Item               Value     Threshold  Converged?
 Maximum Force            0.000476     0.000450     NO 
 RMS     Force            0.000276     0.000300     YES
 Maximum Displacement     0.009073     0.001800     NO 
 RMS     Displacement     0.004819     0.001200     NO 
 Predicted change in Energy=-7.675108D-06
 GradGradGradGradGradGradGradGradGradGradGradGradGradGradGradGradGradGrad

                          Input orientation:                          
 ---------------------------------------------------------------------
 Center     Atomic      Atomic             Coordinates (Angstroms)
 Number     Number       Type             X           Y           Z
 ---------------------------------------------------------------------
      1          8           0       -2.845261    1.166293   -0.096611
      2          1           0       -1.888303    1.039442    0.040334
      3          1           0       -3.198170    1.880568    0.465731
      4          1           0       -3.340177    0.335115    0.026524
 ---------------------------------------------------------------------
                    Distance matrix (angstroms):
                    1          2          3          4
     1  O    0.000000
     2  H    0.974994   0.000000
     3  H    0.975173   1.613755   0.000000
     4  H    0.975173   1.613755   1.612915   0.000000
 Stoichiometry    H3O(1+)
 Framework group  CS[SG(HO),X(H2)]
 Deg. of freedom     4
 Full point group                 CS      NOp   2
 Largest Abelian subgroup         CS      NOp   2
 Largest concise Abelian subgroup CS      NOp   2
                         Standard orientation:                         
 ---------------------------------------------------------------------
 Center     Atomic      Atomic             Coordinates (Angstroms)
 Number     Number       Type             X           Y           Z
 ---------------------------------------------------------------------
      1          8           0        0.000000    0.078609   -0.000000
      2          1           0       -0.931863   -0.208177    0.000000
      3          1           0        0.465931   -0.210348   -0.806457
      4          1           0        0.465931   -0.210348    0.806457
 ---------------------------------------------------------------------
 Rotational constants (GHZ):         332.0105605         331.6134152         192.6226919
 Standard basis: 6-311G(d) (5D, 7F)
 There are    20 symmetry adapted cartesian basis functions of A'  symmetry.
 There are     8 symmetry adapted cartesian basis functions of A"  symmetry.
 There are    19 symmetry adapted basis functions of A'  symmetry.
 There are     8 symmetry adapted basis functions of A"  symmetry.
    27 basis functions,    47 primitive gaussians,    28 cartesian basis functions
     5 alpha electrons        5 beta electrons
       nuclear repulsion energy        14.0083099970 Hartrees.
 NAtoms=    4 NActive=    4 NUniq=    3 SFac= 1.78D+00 NAtFMM=   60 NAOKFM=F Big=F
 Integral buffers will be    131072 words long.
 Raffenetti 2 integral format.
 Two-electron integral symmetry is turned on.
 Nuclear repulsion after empirical dispersion term =       14.0072467870 Hartrees.
 ------------------------------------------------------------------------------
 Polarizable Continuum Model (PCM)
 =================================
 Model                : PCM.
 Atomic radii         : UFF (Universal Force Field).
 Polarization charges : Total charges.
 Charge compensation  : None.
 Solution method      : On-the-fly selection.
 Cavity type          : Scaled VdW (van der Waals Surface) (Alpha=1.100).
 Cavity algorithm     : GePol (No added spheres)
                        Default sphere list used, NSphG=    4.
                        Lebedev-Laikov grids with approx.  5.0 points / Ang**2.
                        Smoothing algorithm: York/Karplus (Gamma=1.0000).
                        Polarization charges: spherical gaussians, with
                                              point-specific exponents (IZeta= 3).
                        Self-potential: point-specific (ISelfS= 7).
                        Self-field    : sphere-specific E.n sum rule (ISelfD= 2).
 1st derivatives      : Analytical E(r).r(x)/FMM algorithm (CHGder, D1EAlg=3).
                        Cavity 1st derivative terms included.
 Solvent              : Water, Eps=  78.355300 Eps(inf)=   1.777849
 ------------------------------------------------------------------------------
 Spheres list:
 ISph  on   Nord     Re0    Alpha      Xe            Ye            Ze
    1   O      1    1.7500  1.100      0.000000      0.078609     -0.000000
    2   H      2    1.4430  1.100     -0.931863     -0.208177      0.000000
    3   H      3    1.4430  1.100      0.465931     -0.210348     -0.806457
    4   H      4    1.4430  1.100      0.465931     -0.210348      0.806457
 ------------------------------------------------------------------------------
 One-electron integrals computed using PRISM.
 NBasis=    27 RedAO= T EigKep=  3.95D-02  NBF=    19     8
 NBsUse=    27 1.00D-06 EigRej= -1.00D+00 NBFU=    19     8
 Initial guess from the checkpoint file:  "/home/kimariyb/g16/scratch/Gau-166641.chk"
 B after Tr=    -0.000000    0.000000   -0.000000
         Rot=    0.999999   -0.000000   -0.000000    0.001614 Ang=   0.18 deg.
 Initial guess orbital symmetries:
       Occupied  (A') (A') (A") (A') (A')
       Virtual   (A') (A') (A") (A') (A") (A') (A') (A') (A") (A')
                 (A') (A") (A') (A") (A') (A') (A") (A') (A') (A')
                 (A") (A')
 Keep R1 ints in memory in symmetry-blocked form, NReq=8695634.
 Requested convergence on RMS density matrix=1.00D-08 within 128 cycles.
 Requested convergence on MAX density matrix=1.00D-06.
 Requested convergence on             energy=1.00D-06.
 No special actions if energy rises.
 Inv3:  Mode=1 IEnd=      559872.
 Iteration    1 A*A^-1 deviation from unit magnitude is 2.44D-15 for    229.
 Iteration    1 A*A^-1 deviation from orthogonality  is 2.55D-15 for    362    108.
 Iteration    1 A^-1*A deviation from unit magnitude is 2.44D-15 for    229.
 Iteration    1 A^-1*A deviation from orthogonality  is 1.97D-15 for    368     67.
 Error on total polarization charges = -0.00101
 SCF Done:  E(RB3LYP) =  -76.8409430484     A.U. after    7 cycles
            NFock=  7  Conv=0.11D-08     -V/T= 2.0035
 D1PCM: PCM CHGder 1st derivatives, ID1Alg=3 FixD1E=F DoIter=F DoCFld=F I1PDM=0.
 Calling FoFJK, ICntrl=      2127 FMM=F ISym2X=1 I1Cent= 0 IOpClX= 0 NMat=1 NMatS=1 NMatT=0.
 ***** Axes restored to original set *****
 -------------------------------------------------------------------
 Center     Atomic                   Forces (Hartrees/Bohr)
 Number     Number              X              Y              Z
 -------------------------------------------------------------------
      1        8          -0.000228570    0.000086961   -0.000232090
      2        1          -0.000011476   -0.000024666    0.000090504
      3        1           0.000139272    0.000178338    0.000130328
      4        1           0.000100774   -0.000240633    0.000011259
 -------------------------------------------------------------------
 Cartesian Forces:  Max     0.000240633 RMS     0.000146906

 GradGradGradGradGradGradGradGradGradGradGradGradGradGradGradGradGradGrad
 Berny optimization.
 Using GEDIIS/GDIIS optimizer.
 FormGI is forming the generalized inverse of G from B-inverse, IUseBI=4.
 Internal  Forces:  Max     0.000237792 RMS     0.000151839
 Search for a local minimum.
 Step number   6 out of a maximum of   20
 All quantities printed in internal units (Hartrees-Bohrs-Radians)
 Mixed Optimization -- En-DIIS/RFO-DIIS
 Swapping is turned off.
 Update second derivatives using D2CorX and points    1    2    3    4    5
                                                      6
 DE= -5.38D-06 DEPred=-7.68D-06 R= 7.01D-01
 TightC=F SS=  1.41D+00  RLast= 2.32D-02 DXNew= 1.4270D+00 6.9459D-02
 Trust test= 7.01D-01 RLast= 2.32D-02 DXMaxT set to 8.49D-01
 The second derivative matrix:
                          R1        R2        R3        A1        A2
           R1           0.56313
           R2           0.00573   0.56650
           R3           0.00573   0.01177   0.56650
           A1           0.03036   0.01518   0.01518   0.11863
           A2           0.02951   0.01735   0.01735  -0.03997   0.12796
           A3          -0.00593   0.00324   0.00324  -0.03289  -0.02922
           D1           0.00117   0.00653   0.00653  -0.01168   0.00073
                          A3        D1
           A3           0.12207
           D1          -0.00326   0.03596
 ITU=  1  1  1  1  1  0
     Eigenvalues ---    0.03115   0.14798   0.16004   0.55473   0.56050
     Eigenvalues ---    0.58453
 En-DIIS/RFO-DIIS/Sim-DIIS IScMMF=       -3 using points:     6    5
 RFO step:  Lambda=-1.33838935D-06.
 DidBck=F Rises=F RFO-DIIS coefs:    0.80393    0.19607
 Iteration  1 RMS(Cart)=  0.00113711 RMS(Int)=  0.00000897
 Iteration  2 RMS(Cart)=  0.00000149 RMS(Int)=  0.00000881
 Iteration  3 RMS(Cart)=  0.00000000 RMS(Int)=  0.00000881
 ClnCor:  largest displacement from symmetrization is 2.51D-06 for atom     4.
 Variable       Old X    -DE/DX   Delta X   Delta X   Delta X     New X
                                 (Linear)    (Quad)   (Total)
    R1        1.84247   0.00001   0.00029  -0.00004   0.00025   1.84272
    R2        1.84281   0.00015   0.00022   0.00019   0.00041   1.84322
    R3        1.84281   0.00015   0.00022   0.00019   0.00041   1.84322
    A1        1.94927  -0.00012  -0.00161  -0.00046  -0.00205   1.94721
    A2        1.94927  -0.00018  -0.00161  -0.00045  -0.00205   1.94721
    A3        1.94746   0.00024  -0.00068   0.00143   0.00077   1.94823
    D1        2.19556  -0.00011  -0.00385   0.00015  -0.00371   2.19185
         Item               Value     Threshold  Converged?
 Maximum Force            0.000238     0.000450     YES
 RMS     Force            0.000152     0.000300     YES
 Maximum Displacement     0.001493     0.001800     YES
 RMS     Displacement     0.001138     0.001200     YES
 Predicted change in Energy=-6.691816D-07
 Optimization completed.
    -- Stationary point found.
                           ----------------------------
                           !   Optimized Parameters   !
                           ! (Angstroms and Degrees)  !
 --------------------------                            --------------------------
 ! Name  Definition              Value          Derivative Info.                !
 --------------------------------------------------------------------------------
 ! R1    R(1,2)                  0.975          -DE/DX =    0.0                 !
 ! R2    R(1,3)                  0.9752         -DE/DX =    0.0002              !
 ! R3    R(1,4)                  0.9752         -DE/DX =    0.0002              !
 ! A1    A(2,1,3)              111.6847         -DE/DX =   -0.0001              !
 ! A2    A(2,1,4)              111.6847         -DE/DX =   -0.0002              !
 ! A3    A(3,1,4)              111.5814         -DE/DX =    0.0002              !
 ! D1    D(2,1,4,3)            125.7963         -DE/DX =   -0.0001              !
 --------------------------------------------------------------------------------
 GradGradGradGradGradGradGradGradGradGradGradGradGradGradGradGradGradGrad

                          Input orientation:                          
 ---------------------------------------------------------------------
 Center     Atomic      Atomic             Coordinates (Angstroms)
 Number     Number       Type             X           Y           Z
 ---------------------------------------------------------------------
      1          8           0       -2.845261    1.166293   -0.096611
      2          1           0       -1.888303    1.039442    0.040334
      3          1           0       -3.198170    1.880568    0.465731
      4          1           0       -3.340177    0.335115    0.026524
 ---------------------------------------------------------------------
                    Distance matrix (angstroms):
                    1          2          3          4
     1  O    0.000000
     2  H    0.974994   0.000000
     3  H    0.975173   1.613755   0.000000
     4  H    0.975173   1.613755   1.612915   0.000000
 Stoichiometry    H3O(1+)
 Framework group  CS[SG(HO),X(H2)]
 Deg. of freedom     4
 Full point group                 CS      NOp   2
 Largest Abelian subgroup         CS      NOp   2
 Largest concise Abelian subgroup CS      NOp   2
                         Standard orientation:                         
 ---------------------------------------------------------------------
 Center     Atomic      Atomic             Coordinates (Angstroms)
 Number     Number       Type             X           Y           Z
 ---------------------------------------------------------------------
      1          8           0       -0.000000    0.078609   -0.000000
      2          1           0       -0.931863   -0.208177    0.000000
      3          1           0        0.465931   -0.210348   -0.806457
      4          1           0        0.465931   -0.210348    0.806457
 ---------------------------------------------------------------------
 Rotational constants (GHZ):         332.0105605         331.6134152         192.6226919

 **********************************************************************

            Population analysis using the SCF density.

 **********************************************************************

 Orbital symmetries:
       Occupied  (A') (A') (A') (A") (A')
       Virtual   (A') (A") (A') (A") (A') (A') (A') (A") (A') (A')
                 (A") (A') (A') (A') (A") (A') (A') (A") (A') (A")
                 (A') (A')
 The electronic state is 1-A'.
 Alpha  occ. eigenvalues --  -19.31858  -1.22104  -0.70591  -0.70562  -0.50907
 Alpha virt. eigenvalues --   -0.03892   0.05611   0.05620   0.28461   0.28491
 Alpha virt. eigenvalues --    0.34672   0.62238   0.74945   0.74948   1.09316
 Alpha virt. eigenvalues --    1.90783   1.90814   1.95346   2.54852   2.54868
 Alpha virt. eigenvalues --    2.84225   3.23277   3.23316   4.58711   4.79678
 Alpha virt. eigenvalues --    4.79724  49.54374
          Condensed to atoms (all electrons):
               1          2          3          4
     1  O    7.980853   0.243693   0.243671   0.243671
     2  H    0.243693   0.206953  -0.010664  -0.010664
     3  H    0.243671  -0.010664   0.207090  -0.010700
     4  H    0.243671  -0.010664  -0.010700   0.207090
 Mulliken charges:
               1
     1  O   -0.711888
     2  H    0.570683
     3  H    0.570603
     4  H    0.570603
 Sum of Mulliken charges =   1.00000
 Mulliken charges with hydrogens summed into heavy atoms:
               1
     1  O    1.000000
 Electronic spatial extent (au):  <R**2>=             18.4188
 Charge=              1.0000 electrons
 Dipole moment (field-independent basis, Debye):
    X=             -0.0008    Y=             -1.8643    Z=              0.0000  Tot=              1.8643
 Quadrupole moment (field-independent basis, Debye-Ang):
   XX=             -2.5459   YY=             -6.3012   ZZ=             -2.5519
   XY=             -0.0064   XZ=              0.0000   YZ=             -0.0000
 Traceless Quadrupole moment (field-independent basis, Debye-Ang):
   XX=              1.2538   YY=             -2.5015   ZZ=              1.2478
   XY=             -0.0064   XZ=              0.0000   YZ=             -0.0000
 Octapole moment (field-independent basis, Debye-Ang**2):
  XXX=             -1.6676  YYY=             -0.9695  ZZZ=              0.0000  XYY=              0.0021
  XXY=             -1.0226  XXZ=              0.0000  XZZ=              1.6642  YZZ=             -1.0266
  YYZ=              0.0000  XYZ=             -0.0000
 Hexadecapole moment (field-independent basis, Debye-Ang**3):
 XXXX=             -3.2411 YYYY=             -5.0494 ZZZZ=             -3.2480 XXXY=              0.3958
 XXXZ=              0.0000 YYYX=              0.0001 YYYZ=             -0.0000 ZZZX=              0.0000
 ZZZY=             -0.0000 XXYY=             -1.6226 XXZZ=             -1.0816 YYZZ=             -1.6203
 XXYZ=             -0.0000 YYXZ=              0.0000 ZZXY=             -0.3992
 N-N= 1.400724678697D+01 E-N=-2.052138470347D+02  KE= 7.657303267061D+01
 Symmetry A'   KE= 7.261711972576D+01
 Symmetry A"   KE= 3.955912944847D+00
 1\1\GINC-LOCALHOST\FOpt\RB3LYP\6-311G(d)\H3O1(1+)\KIMARIYB\21-Jul-2023
 \0\\# opt freq b3lyp/6-311g* em=gd3bj scrf(solvent=water)\\Title Card 
 Required\\1,1\O,-2.8452608597,1.1662934048,-0.0966109927\H,-1.88830280
 99,1.0394424652,0.0403342709\H,-3.1981696395,1.8805680173,0.4657311967
 \H,-3.3401767785,0.335115043,0.0265244254\\Version=ES64L-G16RevA.03\St
 ate=1-A'\HF=-76.840943\RMSD=1.125e-09\RMSF=1.469e-04\Dipole=0.0928659,
 -0.2067781,0.6975717\Quadrupole=0.886452,0.7060595,-1.5925114,0.100305
 ,-0.3396135,0.7474296\PG=CS [SG(H1O1),X(H2)]\\@


 COMMON SENSE IS NOT SO COMMON.   -- VOLTAIRE
 Job cpu time:       0 days  0 hours  1 minutes  7.5 seconds.
 Elapsed time:       0 days  0 hours  0 minutes  7.7 seconds.
 File lengths (MBytes):  RWF=     10 Int=      0 D2E=      0 Chk=      2 Scr=      1
 Normal termination of Gaussian 16 at Fri Jul 21 15:14:40 2023.
 Link1:  Proceeding to internal job step number  2.
 ---------------------------------------------------------------------
 #N Geom=AllCheck Guess=TCheck SCRF=Check GenChk RB3LYP/6-311G(d) Freq
 ---------------------------------------------------------------------
 1/10=4,29=7,30=1,38=1,40=1/1,3;
 2/12=2,40=1/2;
 3/5=4,6=6,7=1,11=2,14=-4,25=1,30=1,70=2,71=2,74=-5,116=1,124=41,140=1/1,2,3;
 4/5=101/1;
 5/5=2,38=6,98=1/2;
 8/6=4,10=90,11=11/1;
 11/6=1,8=1,9=11,15=111,16=1/1,2,10;
 10/6=1/2;
 6/7=2,8=2,9=2,10=2,28=1/1;
 7/8=1,10=1,25=1/1,2,3,16;
 1/10=4,30=1/3;
 99//99;
 Structure from the checkpoint file:  "/home/kimariyb/g16/scratch/Gau-166641.chk"
 -------------------
 Title Card Required
 -------------------
 Charge =  1 Multiplicity = 1
 Redundant internal coordinates found in file.  (old form).
 O,0,-2.8452608597,1.1662934048,-0.0966109927
 H,0,-1.8883028099,1.0394424652,0.0403342709
 H,0,-3.1981696395,1.8805680173,0.4657311967
 H,0,-3.3401767785,0.335115043,0.0265244254
 Recover connectivity data from disk.

 GradGradGradGradGradGradGradGradGradGradGradGradGradGradGradGradGradGrad
 Berny optimization.
 Initialization pass.
                           ----------------------------
                           !    Initial Parameters    !
                           ! (Angstroms and Degrees)  !
 --------------------------                            --------------------------
 ! Name  Definition              Value          Derivative Info.                !
 --------------------------------------------------------------------------------
 ! R1    R(1,2)                  0.975          calculate D2E/DX2 analytically  !
 ! R2    R(1,3)                  0.9752         calculate D2E/DX2 analytically  !
 ! R3    R(1,4)                  0.9752         calculate D2E/DX2 analytically  !
 ! A1    A(2,1,3)              111.6847         calculate D2E/DX2 analytically  !
 ! A2    A(2,1,4)              111.6847         calculate D2E/DX2 analytically  !
 ! A3    A(3,1,4)              111.5814         calculate D2E/DX2 analytically  !
 ! D1    D(2,1,4,3)            125.7963         calculate D2E/DX2 analytically  !
 --------------------------------------------------------------------------------
 Trust Radius=3.00D-01 FncErr=1.00D-07 GrdErr=1.00D-07 EigMax=2.50D+02 EigMin=1.00D-04
 Number of steps in this run=      2 maximum allowed number of steps=      2.
 GradGradGradGradGradGradGradGradGradGradGradGradGradGradGradGradGradGrad

                          Input orientation:                          
 ---------------------------------------------------------------------
 Center     Atomic      Atomic             Coordinates (Angstroms)
 Number     Number       Type             X           Y           Z
 ---------------------------------------------------------------------
      1          8           0       -2.845261    1.166293   -0.096611
      2          1           0       -1.888303    1.039442    0.040334
      3          1           0       -3.198170    1.880568    0.465731
      4          1           0       -3.340177    0.335115    0.026524
 ---------------------------------------------------------------------
                    Distance matrix (angstroms):
                    1          2          3          4
     1  O    0.000000
     2  H    0.974994   0.000000
     3  H    0.975173   1.613755   0.000000
[...]
 Symmetrizing basis deriv contribution to polar:
 IMax=3 JMax=2 DiffMx= 0.00D+00
 G2DrvN: will do     5 centers at a time, making    1 passes.
 Calling FoFCou, ICntrl=  3107 FMM=F I1Cent=   0 AccDes= 0.00D+00.
 NEqPCM:  Using equilibrium solvation (IEInf=0, Eps=  78.3553, EpsInf=   1.7778)
 G2PCM: DoFxE=T DoFxN=T DoGrad=T DoDP/DQ/DG/TGxP=FFFF NFrqRd=   0 IEInf=0 SqF1=F DoCFld=F IF1Alg=4.
 End of G2Drv F.D. properties file   721 does not exist.
 End of G2Drv F.D. properties file   722 does not exist.
 End of G2Drv F.D. properties file   788 does not exist.
          IDoAtm=1111
 NEqPCM:  Using equilibrium solvation (IEInf=0, Eps=  78.3553, EpsInf=   1.7778)
          Differentiating once with respect to electric field.
                with respect to dipole field.
          Differentiating once with respect to nuclear coordinates.
 Keep R1 ints in memory in symmetry-blocked form, NReq=8664250.
          There are    12 degrees of freedom in the 1st order CPHF.  IDoFFX=4 NUNeed=    12.
     12 vectors produced by pass  0 Test12= 9.17D-16 8.33D-09 XBig12= 1.98D+00 8.45D-01.
 AX will form    12 AO Fock derivatives at one time.
     12 vectors produced by pass  1 Test12= 9.17D-16 8.33D-09 XBig12= 5.83D-02 1.26D-01.
     12 vectors produced by pass  2 Test12= 9.17D-16 8.33D-09 XBig12= 3.04D-04 8.99D-03.
     12 vectors produced by pass  3 Test12= 9.17D-16 8.33D-09 XBig12= 1.22D-07 1.50D-04.
      7 vectors produced by pass  4 Test12= 9.17D-16 8.33D-09 XBig12= 2.95D-11 2.44D-06.
      3 vectors produced by pass  5 Test12= 9.17D-16 8.33D-09 XBig12= 1.78D-14 4.59D-08.
 InvSVY:  IOpt=1 It=  1 EMax= 2.22D-16
 Solved reduced A of dimension    58 with    12 vectors.
 Isotropic polarizability for W=    0.000000        5.16 Bohr**3.
 End of Minotr F.D. properties file   721 does not exist.
 End of Minotr F.D. properties file   722 does not exist.
 End of Minotr F.D. properties file   788 does not exist.

 **********************************************************************

            Population analysis using the SCF density.

 **********************************************************************

 Orbital symmetries:
       Occupied  (A') (A') (A') (A") (A')
       Virtual   (A') (A") (A') (A") (A') (A') (A') (A") (A') (A')
                 (A") (A') (A') (A') (A") (A') (A') (A") (A') (A")
                 (A') (A')
 The electronic state is 1-A'.
 Alpha  occ. eigenvalues --  -19.31858  -1.22104  -0.70591  -0.70562  -0.50907
 Alpha virt. eigenvalues --   -0.03892   0.05611   0.05620   0.28461   0.28491
 Alpha virt. eigenvalues --    0.34672   0.62238   0.74945   0.74948   1.09316
 Alpha virt. eigenvalues --    1.90783   1.90814   1.95346   2.54852   2.54868
 Alpha virt. eigenvalues --    2.84225   3.23277   3.23316   4.58711   4.79678
 Alpha virt. eigenvalues --    4.79724  49.54374
          Condensed to atoms (all electrons):
               1          2          3          4
     1  O    7.980853   0.243693   0.243671   0.243671
     2  H    0.243693   0.206952  -0.010664  -0.010664
     3  H    0.243671  -0.010664   0.207090  -0.010700
     4  H    0.243671  -0.010664  -0.010700   0.207090
 Mulliken charges:
               1
     1  O   -0.711888
     2  H    0.570683
     3  H    0.570603
     4  H    0.570603
 Sum of Mulliken charges =   1.00000
 Mulliken charges with hydrogens summed into heavy atoms:
               1
     1  O    1.000000
 APT charges:
               1
     1  O   -0.498708
     2  H    0.499180
     3  H    0.499764
     4  H    0.499764
 Sum of APT charges =   1.00000
 APT charges with hydrogens summed into heavy atoms:
               1
     1  O    1.000000
 Electronic spatial extent (au):  <R**2>=             18.4188
 Charge=              1.0000 electrons
 Dipole moment (field-independent basis, Debye):
    X=             -0.0008    Y=             -1.8643    Z=             -0.0000  Tot=              1.8643
 Quadrupole moment (field-independent basis, Debye-Ang):
   XX=             -2.5459   YY=             -6.3012   ZZ=             -2.5519
   XY=             -0.0064   XZ=             -0.0000   YZ=              0.0000
 Traceless Quadrupole moment (field-independent basis, Debye-Ang):
   XX=              1.2538   YY=             -2.5015   ZZ=              1.2478
   XY=             -0.0064   XZ=             -0.0000   YZ=              0.0000
 Octapole moment (field-independent basis, Debye-Ang**2):
  XXX=             -1.6677  YYY=             -0.9695  ZZZ=             -0.0000  XYY=              0.0021
  XXY=             -1.0226  XXZ=             -0.0000  XZZ=              1.6642  YZZ=             -1.0266
  YYZ=             -0.0000  XYZ=              0.0000
 Hexadecapole moment (field-independent basis, Debye-Ang**3):
 XXXX=             -3.2411 YYYY=             -5.0494 ZZZZ=             -3.2480 XXXY=              0.3958
 XXXZ=             -0.0000 YYYX=              0.0001 YYYZ=             -0.0000 ZZZX=             -0.0000
 ZZZY=              0.0000 XXYY=             -1.6226 XXZZ=             -1.0816 YYZZ=             -1.6203
 XXYZ=              0.0000 YYXZ=             -0.0000 ZZXY=             -0.3992
 N-N= 1.400724678697D+01 E-N=-2.052138472041D+02  KE= 7.657303275450D+01
 Symmetry A'   KE= 7.261711979216D+01
 Symmetry A"   KE= 3.955912962338D+00
  Exact polarizability:   6.046  -0.005   3.382   0.000  -0.000   6.043
 Approx polarizability:   6.599  -0.006   3.506  -0.000   0.000   6.595
 D2PCM: PCM CHGder 2nd derivatives, FixD1E=F FixD2E=F DoIter=F DoCFld=F I1PDM=0
 Calling FoFJK, ICntrl=    100127 FMM=F ISym2X=1 I1Cent= 0 IOpClX= 0 NMat=1 NMatS=1 NMatT=0.
 Full mass-weighted force constant matrix:
 Low frequencies --- -203.2263   -0.0004    0.0008    0.0011   98.6684  112.2186
 Low frequencies ---  940.1880 1774.0307 1780.0070
 Diagonal vibrational polarizability:
        2.1633301      19.3194093       2.1707484
 Harmonic frequencies (cm**-1), IR intensities (KM/Mole), Raman scattering
 activities (A**4/AMU), depolarization ratios for plane and unpolarized
 incident light, reduced masses (AMU), force constants (mDyne/A),
 and normal coordinates:
                      1                      2                      3
                     A'                     A'                     A"
 Frequencies --    940.1459              1774.0306              1779.9774
 Red. masses --      1.1693                 1.0663                 1.0669
 Frc consts  --      0.6090                 1.9772                 1.9916
 IR Inten    --    631.0198               151.4960               153.4605
  Atom  AN      X      Y      Z        X      Y      Z        X      Y      Z
     1   8    -0.00  -0.10  -0.00    -0.06  -0.00  -0.00     0.00   0.00  -0.06
     2   1    -0.17   0.55   0.00    -0.12   0.21   0.00     0.00  -0.00   0.78
     3   1     0.08   0.55  -0.15     0.56  -0.10   0.39     0.39   0.18   0.11
     4   1     0.08   0.55   0.15     0.56  -0.10  -0.39    -0.39  -0.18   0.11
                      4                      5                      6
                     A'                     A'                     A"
 Frequencies --   3635.5390              3718.0516              3720.1626
 Red. masses --      1.0190                 1.0876                 1.0871
 Frc consts  --      7.9350                 8.8586                 8.8644
 IR Inten    --     53.0937               445.1774               446.0152
  Atom  AN      X      Y      Z        X      Y      Z        X      Y      Z
     1   8    -0.00  -0.03  -0.00    -0.07   0.00   0.00    -0.00   0.00  -0.07
     2   1     0.59   0.15  -0.00     0.76   0.23   0.00     0.00   0.00  -0.01
     3   1    -0.27   0.14   0.47     0.20  -0.13  -0.36    -0.34   0.21   0.58
     4   1    -0.27   0.14  -0.47     0.20  -0.13   0.36     0.34  -0.21   0.58

 -------------------
 - Thermochemistry -
 -------------------
 Temperature   298.150 Kelvin.  Pressure   1.00000 Atm.
 Atom     1 has atomic number  8 and mass  15.99491
 Atom     2 has atomic number  1 and mass   1.00783
 Atom     3 has atomic number  1 and mass   1.00783
 Atom     4 has atomic number  1 and mass   1.00783
 Molecular mass:    19.01839 amu.
 Principal axes and moments of inertia in atomic units:
                           1         2         3
     Eigenvalues --     5.43579   5.44230   9.36931
           X            1.00000   0.00000   0.00185
           Y           -0.00185  -0.00000   1.00000
           Z           -0.00000   1.00000  -0.00000
 This molecule is an asymmetric top.
 Rotational symmetry number  1.
 Rotational temperatures (Kelvin)     15.93399    15.91493     9.24443
 Rotational constants (GHZ):         332.01056   331.61342   192.62269
 Zero-point vibrational energy      93116.8 (Joules/Mol)
                                   22.25544 (Kcal/Mol)
 Vibrational temperatures:   1352.66  2552.43  2560.99  5230.73  5349.45
          (Kelvin)           5352.48
 
 Zero-point correction=                           0.035466 (Hartree/Particle)
 Thermal correction to Energy=                    0.038348
 Thermal correction to Enthalpy=                  0.039292
 Thermal correction to Gibbs Free Energy=         0.016349
 Sum of electronic and zero-point Energies=            -76.805477
 Sum of electronic and thermal Energies=               -76.802595
 Sum of electronic and thermal Enthalpies=             -76.801651
 Sum of electronic and thermal Free Energies=          -76.824594
 
                     E (Thermal)             CV                S
                      KCal/Mol        Cal/Mol-Kelvin    Cal/Mol-Kelvin
 Total                   24.064              6.464             48.288
 Electronic               0.000              0.000              0.000
 Translational            0.889              2.981             34.771
 Rotational               0.889              2.981             13.392
 Vibrational             22.286              0.503              0.126
                       Q            Log10(Q)             Ln(Q)
 Total Bot       0.301942D-07         -7.520076        -17.315615
 Total V=0       0.621264D+09          8.793276         20.247266
 Vib (Bot)       0.491459D-16        -16.308513        -37.551738
 Vib (V=0)       0.101120D+01          0.004839          0.011142
 Electronic      0.100000D+01          0.000000          0.000000
 Translational   0.325998D+07          6.513214         14.997231
 Rotational      0.188461D+03          2.275222          5.238893
 ***** Axes restored to original set *****
 -------------------------------------------------------------------
 Center     Atomic                   Forces (Hartrees/Bohr)
 Number     Number              X              Y              Z
 -------------------------------------------------------------------
      1        8          -0.000228569    0.000086961   -0.000232091
      2        1          -0.000011477   -0.000024666    0.000090503
      3        1           0.000139272    0.000178339    0.000130328
      4        1           0.000100774   -0.000240634    0.000011259
 -------------------------------------------------------------------
 Cartesian Forces:  Max     0.000240634 RMS     0.000146906
 FormGI is forming the generalized inverse of G from B-inverse, IUseBI=4.

 GradGradGradGradGradGradGradGradGradGradGradGradGradGradGradGradGradGrad
 Berny optimization.
 Internal  Forces:  Max     0.000237792 RMS     0.000151839
 Search for a local minimum.
 Step number   1 out of a maximum of    2
 All quantities printed in internal units (Hartrees-Bohrs-Radians)
 Second derivative matrix not updated -- analytic derivatives used.
 The second derivative matrix:
                          R1        R2        R3        A1        A2
           R1           0.48944
           R2           0.00340   0.49045
           R3           0.00340   0.00373   0.49045
           A1           0.00394   0.00471  -0.00706   0.06607
           A2           0.01082  -0.00285   0.01315  -0.04876   0.11899
           A3          -0.00147   0.01089   0.01245  -0.04833  -0.02971
           D1           0.01247   0.01249   0.01047   0.01235   0.00446
                          A3        D1
           A3           0.11832
           D1           0.00467   0.02345
 ITU=  0
     Eigenvalues ---    0.03003   0.14613   0.14795   0.48689   0.48730
     Eigenvalues ---    0.49885
 Angle between quadratic step and forces=  47.52 degrees.
 Linear search not attempted -- first point.
 Iteration  1 RMS(Cart)=  0.00117252 RMS(Int)=  0.00000214
 Iteration  2 RMS(Cart)=  0.00000159 RMS(Int)=  0.00000116
 Iteration  3 RMS(Cart)=  0.00000000 RMS(Int)=  0.00000116
 ClnCor:  largest displacement from symmetrization is 1.78D-08 for atom     4.
 Variable       Old X    -DE/DX   Delta X   Delta X   Delta X     New X
                                 (Linear)    (Quad)   (Total)
    R1        1.84247   0.00001   0.00000   0.00019   0.00019   1.84266
    R2        1.84281   0.00015   0.00000   0.00040   0.00040   1.84320
    R3        1.84281   0.00015   0.00000   0.00040   0.00040   1.84320
    A1        1.94927  -0.00012   0.00000  -0.00211  -0.00211   1.94716
    A2        1.94927  -0.00018   0.00000  -0.00211  -0.00211   1.94716
    A3        1.94746   0.00024   0.00000   0.00070   0.00070   1.94816
    D1        2.19556  -0.00011   0.00000  -0.00389  -0.00389   2.19167
         Item               Value     Threshold  Converged?
 Maximum Force            0.000238     0.000450     YES
 RMS     Force            0.000152     0.000300     YES
 Maximum Displacement     0.001576     0.001800     YES
 RMS     Displacement     0.001173     0.001200     YES
 Predicted change in Energy=-6.764467D-07
 Optimization completed.
    -- Stationary point found.
                           ----------------------------
                           !   Optimized Parameters   !
                           ! (Angstroms and Degrees)  !
 --------------------------                            --------------------------
 ! Name  Definition              Value          Derivative Info.                !
 --------------------------------------------------------------------------------
 ! R1    R(1,2)                  0.975          -DE/DX =    0.0                 !
 ! R2    R(1,3)                  0.9752         -DE/DX =    0.0002              !
 ! R3    R(1,4)                  0.9752         -DE/DX =    0.0002              !
 ! A1    A(2,1,3)              111.6847         -DE/DX =   -0.0001              !
 ! A2    A(2,1,4)              111.6847         -DE/DX =   -0.0002              !
 ! A3    A(3,1,4)              111.5814         -DE/DX =    0.0002              !
 ! D1    D(2,1,4,3)            125.7963         -DE/DX =   -0.0001              !
 --------------------------------------------------------------------------------
 GradGradGradGradGradGradGradGradGradGradGradGradGradGradGradGradGradGrad


 ----------------------------------------------------------------------

 Electric dipole moment (input orientation):
 (Debye = 10**-18 statcoulomb cm , SI units = C m)
                  (au)            (Debye)         (10**-30 SI)
   Tot        0.733476D+00      0.186431D+01      0.621867D+01
   x          0.928659D-01      0.236042D+00      0.787350D+00
   y         -0.206778D+00     -0.525577D+00     -0.175314D+01
   z          0.697572D+00      0.177305D+01      0.591426D+01

 Dipole polarizability, Alpha (input orientation).
 (esu units = cm**3 , SI units = C**2 m**2 J**-1)
 Alpha(0;0):
               (au)            (10**-24 esu)      (10**-40 SI)
   iso        0.515685D+01      0.764167D+00      0.850250D+00
   aniso      0.266223D+01      0.394501D+00      0.438942D+00
   xx         0.600210D+01      0.889420D+00      0.989613D+00
   yx         0.959999D-01      0.142257D-01      0.158282D-01
   yy         0.583108D+01      0.864077D+00      0.961416D+00
   zx        -0.324689D+00     -0.481140D-01     -0.535341D-01
   zy         0.713394D+00      0.105714D+00      0.117623D+00
   zz         0.363738D+01      0.539004D+00      0.599723D+00

 ----------------------------------------------------------------------

 Dipole orientation:
     8         -5.26915131          1.96436195         -1.47572112
     1         -3.51277172          1.84045330         -0.93305994
     1         -6.04042494          3.54654472         -0.93002884
     1         -6.25491907          0.50613451         -0.93002884

 Electric dipole moment (dipole orientation):
 (Debye = 10**-18 statcoulomb cm , SI units = C m)
                  (au)            (Debye)         (10**-30 SI)
   Tot        0.733476D+00      0.186431D+01      0.621867D+01
   x          0.000000D+00      0.000000D+00      0.000000D+00
   y          0.000000D+00      0.000000D+00      0.000000D+00
   z          0.733476D+00      0.186431D+01      0.621867D+01

 Dipole polarizability, Alpha (dipole orientation).
 (esu units = cm**3 , SI units = C**2 m**2 J**-1)
 Alpha(0;0):
               (au)            (10**-24 esu)      (10**-40 SI)
   iso        0.515685D+01      0.764167D+00      0.850250D+00
   aniso      0.266223D+01      0.394501D+00      0.438942D+00
   xx         0.604586D+01      0.895904D+00      0.996827D+00
   yx        -0.226720D-03     -0.335964D-04     -0.373811D-04
   yy         0.604266D+01      0.895430D+00      0.996300D+00
   zx        -0.417172D-02     -0.618185D-03     -0.687824D-03
   zy         0.294305D-03      0.436116D-04      0.485244D-04
   zz         0.338204D+01      0.501167D+00      0.557624D+00

 ----------------------------------------------------------------------
 1\1\GINC-LOCALHOST\Freq\RB3LYP\6-311G(d)\H3O1(1+)\KIMARIYB\21-Jul-2023
 \0\\#N Geom=AllCheck Guess=TCheck SCRF=Check GenChk RB3LYP/6-311G(d) F
 req\\Title Card Required\\1,1\O,-2.8452608597,1.1662934048,-0.09661099
 27\H,-1.8883028099,1.0394424652,0.0403342709\H,-3.1981696395,1.8805680
 173,0.4657311967\H,-3.3401767785,0.335115043,0.0265244254\\Version=ES6
 4L-G16RevA.03\State=1-A'\HF=-76.840943\RMSD=2.547e-10\RMSF=1.469e-04\Z
 eroPoint=0.0354663\Thermal=0.0383483\Dipole=0.0928659,-0.2067781,0.697
 5717\DipoleDeriv=-0.5002331,-0.0003807,0.0008733,-0.0002248,-0.501077,
 -0.0020301,0.000325,-0.0019797,-0.4948136,0.5779242,-0.0118222,-0.0106
 611,-0.004175,0.4228923,-0.0218787,-0.0375696,-0.0194062,0.4967234,0.4
 483562,-0.065016,-0.014155,-0.0649171,0.5505035,0.0278447,-0.0014635,0
 .0029267,0.5004323,0.4739528,0.0772189,0.0239428,0.069317,0.5276812,-0
 .0039358,0.0387081,0.0184592,0.497658\Polar=6.0021014,0.0959999,5.8310
 824,-0.3246894,0.7133939,3.6373803\Quadrupole=0.886452,0.7060595,-1.59
 25114,0.100305,-0.3396135,0.7474296\PG=CS [SG(H1O1),X(H2)]\NImag=0\\0.
 75853473,0.02128652,0.71733933,-0.07297319,0.15906071,0.22840062,-0.45
 277355,0.04771708,-0.04870225,0.47575485,0.06023595,-0.08648772,-0.011
 07748,-0.05336881,0.07249176,-0.09275286,-0.00702980,-0.02937549,0.056
 45516,0.00691643,0.02696293,-0.12965674,0.09118493,0.08598671,-0.00803
 055,0.03286757,0.02856919,0.12240891,0.09083192,-0.26605595,-0.1749967
 2,0.00361912,0.00088630,-0.00055043,-0.10883694,0.28795101,0.10607047,
 -0.21641793,-0.17210627,-0.00273790,0.01028096,0.00385786,-0.09744711,
 0.19779364,0.16486537,-0.17610444,-0.16018852,0.03568874,-0.01495075,-
 0.03973471,0.00772851,0.01527839,0.01438590,-0.00588545,0.17577681,-0.
 17235439,-0.36479566,0.02701349,0.00203261,0.01310966,0.00066380,-0.01
 521556,-0.02278136,0.00834333,0.18553734,0.37446736,0.05965558,0.06438
 702,-0.02691885,-0.00501500,-0.00611991,-0.00144530,-0.01710879,-0.022
 24649,0.00338304,-0.03753180,-0.03602062,0.02498112\\0.00022857,-0.000
 08696,0.00023209,0.00001148,0.00002467,-0.00009050,-0.00013927,-0.0001
 7834,-0.00013033,-0.00010077,0.00024063,-0.00001126\\\@


 IF IT'S NOT TRUE, IT'S WELL INVENTED -- DANTE
 Job cpu time:       0 days  0 hours  0 minutes 29.0 seconds.
 Elapsed time:       0 days  0 hours  0 minutes  3.2 seconds.
 File lengths (MBytes):  RWF=     10 Int=      0 D2E=      0 Chk=      3 Scr=      1
 Normal termination of Gaussian 16 at Fri Jul 21 15:14:43 2023.
