 Entering Gaussian System, Link 0=g16
 Initial command:
 /home/kimariyb/g16/l1.exe "/home/kimariyb/g16/scratch/Gau-163023.inp" -scrdir="/home/kimariyb/g16/scratch/"
 Default is to use a total of  10 processors:
                               10 via shared-memory
                                1 via Linda
 Entering Link 1 = /home/kimariyb/g16/l1.exe PID=    163026.
  
 Copyright (c) 1988,1990,1992,1993,1995,1998,2003,2009,2016,
            Gaussian, Inc.  All Rights Reserved.
  
 This is part of the Gaussian(R) 16 program.  It is based on
 the Gaussian(R) 09 system (copyright 2009, Gaussian, Inc.),
 the Gaussian(R) 03 system (copyright 2003, Gaussian, Inc.),
 the Gaussian(R) 98 system (copyright 1998, Gaussian, Inc.),
 the Gaussian(R) 94 system (copyright 1995, Gaussian, Inc.),
 the Gaussian 92(TM) system (copyright 1992, Gaussian, Inc.),
 the Gaussian 90(TM) system (copyright 1990, Gaussian, Inc.),
 the Gaussian 88(TM) system (copyright 1988, Gaussian, Inc.),
 the Gaussian 86(TM) system (copyright 1986, Carnegie Mellon
 University), and the Gaussian 82(TM) system (copyright 1983,
 Carnegie Mellon University). Gaussian is a federally registered
 trademark of Gaussian, Inc.
  
 This software contains proprietary and confidential information,
 including trade secrets, belonging to Gaussian, Inc.
  
 This software is provided under written license and may be
 used, copied, transmitted, or stored only in accord with that
 written license.
  
 The following legend is applicable only to US Government
 contracts under FAR:
  
                    RESTRICTED RIGHTS LEGEND
  
 Use, reproduction and disclosure by the US Government is
 subject to restrictions as set forth in subparagraphs (a)
 and (c) of the Commercial Computer Software - Restricted
 Rights clause in FAR 52.227-19.
  
 Gaussian, Inc.
 340 Quinnipiac St., Bldg. 40, Wallingford CT 06492
  
  
 ---------------------------------------------------------------
 Warning -- This program may not be used in any manner that
 competes with the business of Gaussian, Inc. or will provide
 assistance to any competitor of Gaussian, Inc.  The licensee
 of this program is prohibited from giving any competitor of
 Gaussian, Inc. access to this program.  By using this program,
 the user acknowledges that Gaussian, Inc. is engaged in the
 business of creating and licensing software in the field of
 computational chemistry and represents and warrants to the
 licensee that it is not a competitor of Gaussian, Inc. and that
 it will not use this program in any manner prohibited above.
 ---------------------------------------------------------------
  

 Cite this work as:
 Gaussian 16, Revision A.03,
 M. J. Frisch, G. W. Trucks, H. B. Schlegel, G. E. Scuseria, 
 M. A. Robb, J. R. Cheeseman, G. Scalmani, V. Barone, 
 G. A. Petersson, H. Nakatsuji, X. Li, M. Caricato, A. V. Marenich, 
 J. Bloino, B. G. Janesko, R. Gomperts, B. Mennucci, H. P. Hratchian, 
 J. V. Ortiz, A. F. Izmaylov, J. L. Sonnenberg, D. Williams-Young, 
 F. Ding, F. Lipparini, F. Egidi, J. Goings, B. Peng, A. Petrone, 
 T. Henderson, D. Ranasinghe, V. G. Zakrzewski, J. Gao, N. Rega, 
 G. Zheng, W. Liang, M. Hada, M. Ehara, K. Toyota, R. Fukuda, 
 J. Hasegawa, M. Ishida, T. Nakajima, Y. Honda, O. Kitao, H. Nakai, 
 T. Vreven, K. Throssell, J. A. Montgomery, Jr., J. E. Peralta, 
 F. Ogliaro, M. J. Bearpark, J. J. Heyd, E. N. Brothers, K. N. Kudin, 
 V. N. Staroverov, T. A. Keith, R. Kobayashi, J. Normand, 
 K. Raghavachari, A. P. Rendell, J. C. Burant, S. S. Iyengar, 
 J. Tomasi, M. Cossi, J. M. Millam, M. Klene, C. Adamo, R. Cammi, 
 J. W. Ochterski, R. L. Martin, K. Morokuma, O. Farkas, 
 J. B. Foresman, and D. J. Fox, Gaussian, Inc., Wallingford CT, 2016.
 
 ******************************************
 Gaussian 16:  ES64L-G16RevA.03 25-Dec-2016
                21-Jul-2023 
 ******************************************
 -----------------------------------------------------
 # b3lyp/6-311g* opt freq em=gd3bj scrf(solvent=water)
 -----------------------------------------------------
 1/18=20,19=15,26=3,38=1/1,3;
 2/9=110,12=2,17=6,18=5,40=1/2;
 3/5=4,6=6,7=1,11=2,25=1,30=1,70=2201,71=1,72=1,74=-5,124=41/1,2,3;
 4//1;
 5/5=2,38=5,53=1/2;
 6/7=2,8=2,9=2,10=2,28=1/1;
 7//1,2,3,16;
 1/18=20,19=15,26=3/3(2);
 2/9=110/2;
 99//99;
 2/9=110/2;
 3/5=4,6=6,7=1,11=2,25=1,30=1,70=2205,71=1,72=1,74=-5,124=41/1,2,3;
 4/5=5,16=3,69=1/1;
 5/5=2,38=5,53=1/2;
 7//1,2,3,16;
 1/18=20,19=15,26=3/3(-5);
 2/9=110/2;
 6/7=2,8=2,9=2,10=2,19=2,28=1/1;
 99/9=1/99;
 -------------------
 Title Card Required
 -------------------
 Symbolic Z-matrix:
 Charge =  0 Multiplicity = 1
 C                    -0.47033   0.1809    0. 
 C                     0.99009   0.1809    0. 
 O                     0.28244   1.43236   0. 
 H                    -1.04164  -0.00886  -0.92753 
 H                    -1.04164  -0.00886   0.92753 
 C                     1.78574  -0.08338   1.29178 
 H                     2.00859  -1.12727   1.36616 
 H                     2.698     0.47535   1.26939 
 H                     1.20347   0.21815   2.13731 
 C                     1.78574  -0.08338  -1.29178 
 H                     2.65944   0.53417  -1.30517 
 H                     2.07591  -1.11266  -1.32768 
 H                     1.17471   0.14472  -2.14001 
 

 GradGradGradGradGradGradGradGradGradGradGradGradGradGradGradGradGradGrad
 Berny optimization.
 Initialization pass.
                           ----------------------------
                           !    Initial Parameters    !
                           ! (Angstroms and Degrees)  !
 --------------------------                            --------------------------
 ! Name  Definition              Value          Derivative Info.                !
 --------------------------------------------------------------------------------
 ! R1    R(1,2)                  1.4604         estimate D2E/DX2                !
 ! R2    R(1,3)                  1.4604         estimate D2E/DX2                !
 ! R3    R(1,4)                  1.1058         estimate D2E/DX2                !
 ! R4    R(1,5)                  1.1058         estimate D2E/DX2                !
 ! R5    R(2,3)                  1.4377         estimate D2E/DX2                !
 ! R6    R(2,6)                  1.54           estimate D2E/DX2                !
 ! R7    R(2,10)                 1.54           estimate D2E/DX2                !
 ! R8    R(6,7)                  1.07           estimate D2E/DX2                !
 ! R9    R(6,8)                  1.07           estimate D2E/DX2                !
 ! R10   R(6,9)                  1.07           estimate D2E/DX2                !
 ! R11   R(10,11)                1.07           estimate D2E/DX2                !
 ! R12   R(10,12)                1.07           estimate D2E/DX2                !
 ! R13   R(10,13)                1.07           estimate D2E/DX2                !
 ! A1    A(2,1,4)              121.1085         estimate D2E/DX2                !
 ! A2    A(2,1,5)              121.1085         estimate D2E/DX2                !
 ! A3    A(3,1,4)              114.4165         estimate D2E/DX2                !
 ! A4    A(3,1,5)              114.4165         estimate D2E/DX2                !
 ! A5    A(4,1,5)              114.0306         estimate D2E/DX2                !
 ! A6    A(1,2,6)              121.1085         estimate D2E/DX2                !
 ! A7    A(1,2,10)             121.1085         estimate D2E/DX2                !
 ! A8    A(3,2,6)              113.8091         estimate D2E/DX2                !
 ! A9    A(3,2,10)             113.8091         estimate D2E/DX2                !
 ! A10   A(6,2,10)             114.0306         estimate D2E/DX2                !
 ! A11   A(2,6,7)              109.4712         estimate D2E/DX2                !
 ! A12   A(2,6,8)              109.4712         estimate D2E/DX2                !
 ! A13   A(2,6,9)              109.4712         estimate D2E/DX2                !
 ! A14   A(7,6,8)              109.4713         estimate D2E/DX2                !
 ! A15   A(7,6,9)              109.4712         estimate D2E/DX2                !
 ! A16   A(8,6,9)              109.4712         estimate D2E/DX2                !
 ! A17   A(2,10,11)            109.4712         estimate D2E/DX2                !
 ! A18   A(2,10,12)            109.4712         estimate D2E/DX2                !
 ! A19   A(2,10,13)            109.4712         estimate D2E/DX2                !
 ! A20   A(11,10,12)           109.4713         estimate D2E/DX2                !
 ! A21   A(11,10,13)           109.4712         estimate D2E/DX2                !
 ! A22   A(12,10,13)           109.4712         estimate D2E/DX2                !
 ! D1    D(4,1,2,6)           -156.8753         estimate D2E/DX2                !
 ! D2    D(4,1,2,10)             0.0            estimate D2E/DX2                !
 ! D3    D(5,1,2,6)              0.0            estimate D2E/DX2                !
 ! D4    D(5,1,2,10)           156.8753         estimate D2E/DX2                !
 ! D5    D(1,2,6,7)             92.5593         estimate D2E/DX2                !
 ! D6    D(1,2,6,8)           -147.4407         estimate D2E/DX2                !
 ! D7    D(1,2,6,9)            -27.4407         estimate D2E/DX2                !
 ! D8    D(3,2,6,7)            161.3298         estimate D2E/DX2                !
 ! D9    D(3,2,6,8)            -78.6702         estimate D2E/DX2                !
 ! D10   D(3,2,6,9)             41.3298         estimate D2E/DX2                !
 ! D11   D(10,2,6,7)           -65.8383         estimate D2E/DX2                !
 ! D12   D(10,2,6,8)            54.1618         estimate D2E/DX2                !
 ! D13   D(10,2,6,9)           174.1618         estimate D2E/DX2                !
 ! D14   D(1,2,10,11)          142.958          estimate D2E/DX2                !
 ! D15   D(1,2,10,12)          -97.042          estimate D2E/DX2                !
 ! D16   D(1,2,10,13)           22.958          estimate D2E/DX2                !
 ! D17   D(3,2,10,11)           74.1875         estimate D2E/DX2                !
 ! D18   D(3,2,10,12)         -165.8125         estimate D2E/DX2                !
 ! D19   D(3,2,10,13)          -45.8125         estimate D2E/DX2                !
 ! D20   D(6,2,10,11)          -58.6445         estimate D2E/DX2                !
 ! D21   D(6,2,10,12)           61.3556         estimate D2E/DX2                !
 ! D22   D(6,2,10,13)         -178.6445         estimate D2E/DX2                !
 --------------------------------------------------------------------------------
 Trust Radius=3.00D-01 FncErr=1.00D-07 GrdErr=1.00D-06 EigMax=2.50D+02 EigMin=1.00D-04
 Number of steps in this run=     67 maximum allowed number of steps=    100.
 GradGradGradGradGradGradGradGradGradGradGradGradGradGradGradGradGradGrad

                          Input orientation:                          
 ---------------------------------------------------------------------
 Center     Atomic      Atomic             Coordinates (Angstroms)
 Number     Number       Type             X           Y           Z
 ---------------------------------------------------------------------
      1          6           0       -0.470333    0.180897    0.000000
      2          6           0        0.990088    0.180897    0.000000
      3          8           0        0.282437    1.432363    0.000000
      4          1           0       -1.041636   -0.008863   -0.927531
      5          1           0       -1.041636   -0.008863    0.927531
      6          6           0        1.785745   -0.083382    1.291777
      7          1           0        2.008588   -1.127274    1.366155
      8          1           0        2.698002    0.475353    1.269393
      9          1           0        1.203470    0.218150    2.137315
     10          6           0        1.785745   -0.083382   -1.291777
     11          1           0        2.659444    0.534169   -1.305175
     12          1           0        2.075910   -1.112661   -1.327678
     13          1           0        1.174705    0.144723   -2.140010
 ---------------------------------------------------------------------
                    Distance matrix (angstroms):
                    1          2          3          4          5
     1  C    0.000000
     2  C    1.460421   0.000000
     3  O    1.460421   1.437685   0.000000
     4  H    1.105762   2.241478   2.165783   0.000000
     5  H    1.105762   2.241478   2.165783   1.855062   0.000000
     6  C    2.613124   1.540000   2.495216   3.595130   2.851720
     7  H    3.118130   2.148263   3.376050   3.976896   3.278277
     8  H    3.425844   2.148263   2.891743   4.364153   3.786321
     9  H    2.714980   2.148263   2.625020   3.805958   2.560393
    10  C    2.613124   1.540000   2.495216   2.851720   3.595130
    11  H    3.409368   2.148263   2.856641   3.759720   4.356358
    12  H    3.149504   2.148263   3.384734   3.331303   4.002928
    13  H    2.699463   2.148263   2.652132   2.530980   3.787554
                    6          7          8          9         10
     6  C    0.000000
     7  H    1.070000   0.000000
     8  H    1.070000   1.747303   0.000000
     9  H    1.070000   1.747303   1.747303   0.000000
    10  C    2.583554   2.864257   2.775606   3.491222   0.000000
    11  H    2.808715   3.212477   2.575528   3.751062   1.070000
    12  H    2.829339   2.694714   3.107019   3.812924   1.070000
    13  H    3.493216   3.821849   3.748837   4.278051   1.070000
                   11         12         13
    11  H    0.000000
    12  H    1.747303   0.000000
    13  H    1.747303   1.747303   0.000000
 Stoichiometry    C4H8O
 Framework group  C1[X(C4H8O)]
 Deg. of freedom    33
 Full point group                 C1      NOp   1
 Largest Abelian subgroup         C1      NOp   1
 Largest concise Abelian subgroup C1      NOp   1
                         Standard orientation:                         
 ---------------------------------------------------------------------
 Center     Atomic      Atomic             Coordinates (Angstroms)
 Number     Number       Type             X           Y           Z
 ---------------------------------------------------------------------
      1          6           0       -1.260335    0.000000   -0.582678
      2          6           0        0.110642    0.000000   -0.079438
      3          8           0       -0.984906    0.000000    0.851536
      4          1           0       -1.731260    0.927531   -0.957679
      5          1           0       -1.731260   -0.927531   -0.957679
      6          6           0        0.948636   -1.291777   -0.053360
      7          1           0        1.517540   -1.366155   -0.956529
      8          1           0        1.612489   -1.269393    0.785507
      9          1           0        0.298119   -2.137315    0.029062
     10          6           0        0.948636    1.291777   -0.053360
     11          1           0        1.556026    1.305175    0.827434
     12          1           0        1.575704    1.327678   -0.919614
     13          1           0        0.296418    2.140010   -0.049780
 ---------------------------------------------------------------------
 Rotational constants (GHZ):           6.4351848           5.4366923           3.8748995
 Standard basis: 6-311G(d) (5D, 7F)
 There are   119 symmetry adapted cartesian basis functions of A   symmetry.
 There are   114 symmetry adapted basis functions of A   symmetry.
   114 basis functions,   200 primitive gaussians,   119 cartesian basis functions
    20 alpha electrons       20 beta electrons
       nuclear repulsion energy       184.8479638530 Hartrees.
 NAtoms=   13 NActive=   13 NUniq=   13 SFac= 1.00D+00 NAtFMM=   60 NAOKFM=F Big=F
 Integral buffers will be    131072 words long.
 Raffenetti 2 integral format.
 Two-electron integral symmetry is turned on.
 Nuclear repulsion after empirical dispersion term =      184.8333434249 Hartrees.
 ------------------------------------------------------------------------------
 Polarizable Continuum Model (PCM)
 =================================
 Model                : PCM.
 Atomic radii         : UFF (Universal Force Field).
 Polarization charges : Total charges.
 Charge compensation  : None.
 Solution method      : On-the-fly selection.
 Cavity type          : Scaled VdW (van der Waals Surface) (Alpha=1.100).
 Cavity algorithm     : GePol (No added spheres)
                        Default sphere list used, NSphG=   13.
                        Lebedev-Laikov grids with approx.  5.0 points / Ang**2.
                        Smoothing algorithm: York/Karplus (Gamma=1.0000).
                        Polarization charges: spherical gaussians, with
                                              point-specific exponents (IZeta= 3).
                        Self-potential: point-specific (ISelfS= 7).
                        Self-field    : sphere-specific E.n sum rule (ISelfD= 2).
 1st derivatives      : Analytical E(r).r(x)/FMM algorithm (CHGder, D1EAlg=3).
                        Cavity 1st derivative terms included.
 Solvent              : Water, Eps=  78.355300 Eps(inf)=   1.777849
 ------------------------------------------------------------------------------
 Spheres list:
 ISph  on   Nord     Re0    Alpha      Xe            Ye            Ze
    1   C      1    1.9255  1.100     -1.260335     -0.000000     -0.582678
    2   C      2    1.9255  1.100      0.110642      0.000000     -0.079438
    3   O      3    1.7500  1.100     -0.984906     -0.000000      0.851536
    4   H      4    1.4430  1.100     -1.731260      0.927531     -0.957679
    5   H      5    1.4430  1.100     -1.731260     -0.927531     -0.957679
    6   C      6    1.9255  1.100      0.948636     -1.291777     -0.053360
    7   H      7    1.4430  1.100      1.517540     -1.366155     -0.956529
    8   H      8    1.4430  1.100      1.612489     -1.269393      0.785507
    9   H      9    1.4430  1.100      0.298119     -2.137315      0.029062
   10   C     10    1.9255  1.100      0.948636      1.291777     -0.053360
   11   H     11    1.4430  1.100      1.556026      1.305175      0.827434
   12   H     12    1.4430  1.100      1.575704      1.327678     -0.919614
   13   H     13    1.4430  1.100      0.296418      2.140010     -0.049780
 ------------------------------------------------------------------------------
 One-electron integrals computed using PRISM.
 NBasis=   114 RedAO= T EigKep=  1.98D-03  NBF=   114
 NBsUse=   114 1.00D-06 EigRej= -1.00D+00 NBFU=   114
 ExpMin= 1.03D-01 ExpMax= 8.59D+03 ExpMxC= 1.30D+03 IAcc=3 IRadAn=         5 AccDes= 0.00D+00
 Harris functional with IExCor=  402 and IRadAn=       5 diagonalized for initial guess.
 HarFok:  IExCor=  402 AccDes= 0.00D+00 IRadAn=         5 IDoV= 1 UseB2=F ITyADJ=14
 ICtDFT=  3500011 ScaDFX=  1.000000  1.000000  1.000000  1.000000
 FoFCou: FMM=F IPFlag=           0 FMFlag=      100000 FMFlg1=           0
         NFxFlg=           0 DoJE=T BraDBF=F KetDBF=T FulRan=T
         wScrn=  0.000000 ICntrl=       500 IOpCl=  0 I1Cent=   200000004 NGrid=           0
         NMat0=    1 NMatS0=      1 NMatT0=    0 NMatD0=    1 NMtDS0=    0 NMtDT0=    0
 Petite list used in FoFCou.
 Requested convergence on RMS density matrix=1.00D-08 within 128 cycles.
 Requested convergence on MAX density matrix=1.00D-06.
 Requested convergence on             energy=1.00D-06.
 No special actions if energy rises.
 Inv3:  Mode=1 IEnd=     3486252.
 Iteration    1 A*A^-1 deviation from unit magnitude is 2.22D-15 for     12.
 Iteration    1 A*A^-1 deviation from orthogonality  is 1.55D-15 for    800    571.
 Iteration    1 A^-1*A deviation from unit magnitude is 2.66D-15 for    184.
 Iteration    1 A^-1*A deviation from orthogonality  is 2.00D-15 for    955    722.
 Error on total polarization charges =  0.00900
 SCF Done:  E(RB3LYP) =  -232.497323109     A.U. after   11 cycles
            NFock= 11  Conv=0.30D-08     -V/T= 2.0035

 **********************************************************************

            Population analysis using the SCF density.

 **********************************************************************

 Orbital symmetries:
       Occupied  (A) (A) (A) (A) (A) (A) (A) (A) (A) (A) (A) (A)
                 (A) (A) (A) (A) (A) (A) (A) (A)
       Virtual   (A) (A) (A) (A) (A) (A) (A) (A) (A) (A) (A) (A)
                 (A) (A) (A) (A) (A) (A) (A) (A) (A) (A) (A) (A)
                 (A) (A) (A) (A) (A) (A) (A) (A) (A) (A) (A) (A)
                 (A) (A) (A) (A) (A) (A) (A) (A) (A) (A) (A) (A)
                 (A) (A) (A) (A) (A) (A) (A) (A) (A) (A) (A) (A)
                 (A) (A) (A) (A) (A) (A) (A) (A) (A) (A) (A) (A)
                 (A) (A) (A) (A) (A) (A) (A) (A) (A) (A) (A) (A)
                 (A) (A) (A) (A) (A) (A) (A) (A) (A) (A)
 The electronic state is 1-A.
 Alpha  occ. eigenvalues --  -19.12304 -10.23380 -10.22023 -10.15719 -10.15708
 Alpha  occ. eigenvalues --   -1.06513  -0.76656  -0.70370  -0.66269  -0.56481
 Alpha  occ. eigenvalues --   -0.48848  -0.47143  -0.44603  -0.41974  -0.40236
 Alpha  occ. eigenvalues --   -0.39039  -0.36195  -0.35393  -0.30590  -0.26910
 Alpha virt. eigenvalues --    0.04808   0.07942   0.08404   0.08859   0.10968
 Alpha virt. eigenvalues --    0.11216   0.11753   0.14485   0.15436   0.16577
 Alpha virt. eigenvalues --    0.17621   0.24285   0.25763   0.29587   0.30045
 Alpha virt. eigenvalues --    0.35057   0.36700   0.37945   0.42731   0.43325
 Alpha virt. eigenvalues --    0.45746   0.49945   0.54102   0.54627   0.57548
 Alpha virt. eigenvalues --    0.57923   0.58910   0.60709   0.62054   0.62105
 Alpha virt. eigenvalues --    0.65103   0.65810   0.68284   0.71706   0.74928
 Alpha virt. eigenvalues --    0.83039   0.90052   0.91123   1.02117   1.08165
 Alpha virt. eigenvalues --    1.13810   1.28467   1.33957   1.39875   1.40798
 Alpha virt. eigenvalues --    1.48565   1.49435   1.51862   1.51950   1.54093
 Alpha virt. eigenvalues --    1.57205   1.58155   1.63667   1.69918   1.73703
 Alpha virt. eigenvalues --    1.81926   1.84104   1.94047   1.97897   2.06087
 Alpha virt. eigenvalues --    2.12990   2.31723   2.35062   2.38487   2.40371
 Alpha virt. eigenvalues --    2.42979   2.45400   2.52868   2.57621   2.68619
 Alpha virt. eigenvalues --    2.71921   2.90167   2.91152   3.04613   3.05594
 Alpha virt. eigenvalues --    3.07345   3.15274   3.19334   3.22571   3.23720
 Alpha virt. eigenvalues --    3.29184   3.31254   3.59078   3.76819   3.98080
 Alpha virt. eigenvalues --    4.26328   4.89016   5.21879   5.39738  23.33325
 Alpha virt. eigenvalues --   23.59989  23.60986  23.80401  49.86040
          Condensed to atoms (all electrons):
               1          2          3          4          5          6
     1  C    5.180009   0.277955   0.183169   0.371549   0.373300  -0.051054
     2  C    0.277955   5.008250   0.139092  -0.019732  -0.022290   0.350077
     3  O    0.183169   0.139092   8.145496  -0.024226  -0.024023  -0.034208
     4  H    0.371549  -0.019732  -0.024226   0.498506  -0.043955   0.001699
     5  H    0.373300  -0.022290  -0.024023  -0.043955   0.498843   0.000421
     6  C   -0.051054   0.350077  -0.034208   0.001699   0.000421   5.296689
     7  H   -0.004092  -0.037678   0.004439   0.000449  -0.000607   0.375844
     8  H    0.007847  -0.036753  -0.001813  -0.000268   0.000136   0.385051
     9  H   -0.002529  -0.037910   0.006084   0.000534  -0.001163   0.382545
    10  C   -0.051267   0.350350  -0.032574  -0.000317   0.001801  -0.078484
    11  H    0.007953  -0.036261  -0.001962   0.000157  -0.000277  -0.007159
    12  H   -0.003407  -0.038208   0.004436  -0.000615   0.000427  -0.000616
    13  H   -0.003022  -0.038018   0.005218  -0.000673   0.000521   0.007690
               7          8          9         10         11         12
     1  C   -0.004092   0.007847  -0.002529  -0.051267   0.007953  -0.003407
     2  C   -0.037678  -0.036753  -0.037910   0.350350  -0.036261  -0.038208
     3  O    0.004439  -0.001813   0.006084  -0.032574  -0.001962   0.004436
     4  H    0.000449  -0.000268   0.000534  -0.000317   0.000157  -0.000615
     5  H   -0.000607   0.000136  -0.001163   0.001801  -0.000277   0.000427
     6  C    0.375844   0.385051   0.382545  -0.078484  -0.007159  -0.000616
     7  H    0.485949  -0.028083  -0.021314  -0.000354   0.000127  -0.000096
     8  H   -0.028083   0.481655  -0.027972  -0.007462   0.003967   0.000043
     9  H   -0.021314  -0.027972   0.475584   0.007795  -0.000097  -0.000365
    10  C   -0.000354  -0.007462   0.007795   5.294952   0.383527   0.376276
    11  H    0.000127   0.003967  -0.000097   0.383527   0.482114  -0.028071
    12  H   -0.000096   0.000043  -0.000365   0.376276  -0.028071   0.486948
    13  H   -0.000391  -0.000054  -0.000490   0.384190  -0.028061  -0.021907
              13
     1  C   -0.003022
     2  C   -0.038018
     3  O    0.005218
     4  H   -0.000673
     5  H    0.000521
     6  C    0.007690
     7  H   -0.000391
     8  H   -0.000054
     9  H   -0.000490
    10  C    0.384190
    11  H   -0.028061
    12  H   -0.021907
    13  H    0.475425
 Mulliken charges:
               1
     1  C   -0.286411
     2  C    0.141126
     3  O   -0.369127
     4  H    0.216892
     5  H    0.216866
     6  C   -0.628495
     7  H    0.225807
     8  H    0.223706
     9  H    0.219300
    10  C   -0.628433
    11  H    0.224043
    12  H    0.225154
    13  H    0.219572
 Sum of Mulliken charges =  -0.00000
 Mulliken charges with hydrogens summed into heavy atoms:
               1
     1  C    0.147347
     2  C    0.141126
     3  O   -0.369127
     6  C    0.040318
    10  C    0.040336
 Electronic spatial extent (au):  <R**2>=            409.0296
 Charge=             -0.0000 electrons
 Dipole moment (field-independent basis, Debye):
    X=              1.0972    Y=              0.0001    Z=             -2.2629  Tot=              2.5149
 Quadrupole moment (field-independent basis, Debye-Ang):
   XX=            -30.9558   YY=            -30.6881   ZZ=            -33.2277
   XY=              0.0007   XZ=              3.2028   YZ=             -0.0002
 Traceless Quadrupole moment (field-independent basis, Debye-Ang):
   XX=              0.6681   YY=              0.9358   ZZ=             -1.6038
   XY=              0.0007   XZ=              3.2028   YZ=             -0.0002
 Octapole moment (field-independent basis, Debye-Ang**2):
  XXX=             -4.2145  YYY=              0.0011  ZZZ=              0.8997  XYY=             -3.5247
  XXY=              0.0134  XXZ=             -3.3368  XZZ=              1.7694  YZZ=             -0.0092
  YYZ=             -0.1823  XYZ=              0.0663
 Hexadecapole moment (field-independent basis, Debye-Ang**3):
 XXXX=           -239.5480 YYYY=           -216.8042 ZZZZ=            -89.3148 XXXY=              0.0109
 XXXZ=              3.0934 YYYX=             -0.0254 YYYZ=             -0.2213 ZZZX=             -0.1888
 ZZZY=              0.2486 XXYY=            -75.3430 XXZZ=            -51.7394 YYZZ=            -51.2789
 XXYZ=             -0.0204 YYXZ=              1.0778 ZZXY=              0.0000
 N-N= 1.848333434249D+02 E-N=-9.119213143202D+02  KE= 2.316789839756D+02
 D1PCM: PCM CHGder 1st derivatives, ID1Alg=3 FixD1E=F DoIter=F DoCFld=F I1PDM=0.
 Calling FoFJK, ICntrl=      2127 FMM=F ISym2X=0 I1Cent= 0 IOpClX= 0 NMat=1 NMatS=1 NMatT=0.
 ***** Axes restored to original set *****
 -------------------------------------------------------------------
 Center     Atomic                   Forces (Hartrees/Bohr)
 Number     Number              X              Y              Z
 -------------------------------------------------------------------
      1        6          -0.013149693    0.004582278    0.000274151
      2        6           0.023874510   -0.001002170    0.000108919
      3        8          -0.007440023   -0.003951895   -0.000359747
      4        1           0.008160308    0.000964565    0.008826538
      5        1           0.008118991    0.001012698   -0.008792375
      6        6          -0.021230684    0.002940112   -0.024585143
      7        1           0.004874829   -0.014842372    0.002811866
      8        1           0.013361154    0.007517510    0.000354204
      9        1          -0.006692710    0.003544947    0.012692248
     10        6          -0.021563576    0.002816799    0.024574065
     11        1           0.012860709    0.008316555   -0.000580207
     12        1           0.005623548   -0.014600965   -0.002385871
     13        1          -0.006797364    0.002701936   -0.012938650
 -------------------------------------------------------------------
 Cartesian Forces:  Max     0.024585143 RMS     0.010952452

 GradGradGradGradGradGradGradGradGradGradGradGradGradGradGradGradGradGrad
 Berny optimization.
 FormGI is forming the generalized inverse of G from B-inverse, IUseBI=4.
 Internal  Forces:  Max     0.015689466 RMS     0.006095819
 Search for a local minimum.
 Step number   1 out of a maximum of   67
 All quantities printed in internal units (Hartrees-Bohrs-Radians)
 Mixed Optimization -- RFO/linear search
 Second derivative matrix not updated -- first step.
 ITU=  0
     Eigenvalues ---    0.00237   0.00237   0.01963   0.03430   0.04389
     Eigenvalues ---    0.05720   0.05720   0.05720   0.05720   0.15411
     Eigenvalues ---    0.16000   0.16000   0.16000   0.16000   0.16000
     Eigenvalues ---    0.16000   0.16000   0.16000   0.16620   0.21955
     Eigenvalues ---    0.26820   0.28519   0.28519   0.33053   0.33053
     Eigenvalues ---    0.36418   0.37230   0.37230   0.37230   0.37230
     Eigenvalues ---    0.37230   0.37230   0.38877
 RFO step:  Lambda=-6.92582925D-03 EMin= 2.36824227D-03
 Linear search not attempted -- first point.
 Iteration  1 RMS(Cart)=  0.02623328 RMS(Int)=  0.00061033
 Iteration  2 RMS(Cart)=  0.00056376 RMS(Int)=  0.00031995
 Iteration  3 RMS(Cart)=  0.00000026 RMS(Int)=  0.00031995
 Variable       Old X    -DE/DX   Delta X   Delta X   Delta X     New X
                                 (Linear)    (Quad)   (Total)
    R1        2.75980  -0.00082   0.00000   0.00152   0.00120   2.76100
    R2        2.75980  -0.00425   0.00000  -0.02117  -0.02059   2.73921
    R3        2.08959  -0.01178   0.00000  -0.03492  -0.03492   2.05466
    R4        2.08959  -0.01174   0.00000  -0.03480  -0.03480   2.05479
    R5        2.71683   0.00220   0.00000   0.01121   0.01094   2.72777
    R6        2.91018  -0.01218   0.00000  -0.04170  -0.04170   2.86848
    R7        2.91018  -0.01224   0.00000  -0.04191  -0.04191   2.86826
    R8        2.02201   0.01569   0.00000   0.04137   0.04137   2.06338
    R9        2.02201   0.01531   0.00000   0.04037   0.04037   2.06238
   R10        2.02201   0.01467   0.00000   0.03869   0.03869   2.06069
   R11        2.02201   0.01531   0.00000   0.04037   0.04037   2.06238
   R12        2.02201   0.01565   0.00000   0.04127   0.04127   2.06327
   R13        2.02201   0.01471   0.00000   0.03880   0.03880   2.06081
    A1        2.11374  -0.00202   0.00000  -0.01804  -0.01856   2.09518
    A2        2.11374  -0.00212   0.00000  -0.01798  -0.01852   2.09522
    A3        1.99695  -0.00068   0.00000   0.00971   0.00978   2.00673
    A4        1.99695  -0.00028   0.00000   0.01030   0.01040   2.00735
    A5        1.99021   0.00299   0.00000   0.01722   0.01667   2.00688
    A6        2.11374  -0.00189   0.00000  -0.02112  -0.02111   2.09264
    A7        2.11374  -0.00130   0.00000  -0.01831  -0.01836   2.09538
    A8        1.98634   0.00042   0.00000   0.01874   0.01809   2.00443
    A9        1.98634   0.00003   0.00000   0.01568   0.01496   2.00131
   A10        1.99021   0.00299   0.00000   0.02109   0.01983   2.01004
   A11        1.91063   0.00281   0.00000   0.01738   0.01728   1.92792
   A12        1.91063   0.00020   0.00000  -0.00056  -0.00056   1.91007
   A13        1.91063   0.00202   0.00000   0.01332   0.01323   1.92386
   A14        1.91063  -0.00182   0.00000  -0.01336  -0.01335   1.89728
   A15        1.91063  -0.00197   0.00000  -0.00831  -0.00849   1.90214
   A16        1.91063  -0.00124   0.00000  -0.00847  -0.00847   1.90217
   A17        1.91063  -0.00021   0.00000  -0.00332  -0.00329   1.90734
   A18        1.91063   0.00280   0.00000   0.01731   0.01720   1.92783
   A19        1.91063   0.00252   0.00000   0.01664   0.01653   1.92716
   A20        1.91063  -0.00170   0.00000  -0.01325  -0.01322   1.89742
   A21        1.91063  -0.00129   0.00000  -0.00880  -0.00878   1.90185
   A22        1.91063  -0.00212   0.00000  -0.00860  -0.00883   1.90180
    D1       -2.73799   0.00144   0.00000   0.05269   0.05216  -2.68583
    D2        0.00000   0.00152   0.00000   0.00329   0.00357   0.00357
    D3       -0.00000  -0.00131   0.00000   0.00110   0.00084   0.00084
    D4        2.73799  -0.00123   0.00000  -0.04830  -0.04775   2.69024
    D5        1.61546   0.00107   0.00000   0.00106   0.00123   1.61669
    D6       -2.57333   0.00068   0.00000  -0.00500  -0.00489  -2.57822
    D7       -0.47893   0.00052   0.00000  -0.00756  -0.00750  -0.48643
    D8        2.81574  -0.00166   0.00000  -0.00891  -0.00921   2.80652
    D9       -1.37305  -0.00205   0.00000  -0.01498  -0.01533  -1.38839
   D10        0.72134  -0.00221   0.00000  -0.01754  -0.01794   0.70340
   D11       -1.14909   0.00184   0.00000   0.05497   0.05527  -1.09383
   D12        0.94530   0.00145   0.00000   0.04890   0.04915   0.99445
   D13        3.03970   0.00128   0.00000   0.04634   0.04654   3.08623
   D14        2.49509  -0.00049   0.00000   0.01853   0.01849   2.51358
   D15       -1.69370  -0.00098   0.00000   0.01088   0.01077  -1.68294
   D16        0.40069  -0.00033   0.00000   0.02114   0.02117   0.42186
   D17        1.29482   0.00228   0.00000   0.02929   0.02957   1.32438
   D18       -2.89397   0.00179   0.00000   0.02164   0.02184  -2.87213
   D19       -0.79958   0.00245   0.00000   0.03190   0.03224  -0.76733
   D20       -1.02354  -0.00140   0.00000  -0.03605  -0.03628  -1.05982
   D21        1.07086  -0.00189   0.00000  -0.04370  -0.04400   1.02685
   D22       -3.11793  -0.00123   0.00000  -0.03344  -0.03360   3.13165
         Item               Value     Threshold  Converged?
 Maximum Force            0.015689     0.000450     NO 
 RMS     Force            0.006096     0.000300     NO 
 Maximum Displacement     0.085306     0.001800     NO 
 RMS     Displacement     0.026372     0.001200     NO 
 Predicted change in Energy=-3.624100D-03
 GradGradGradGradGradGradGradGradGradGradGradGradGradGradGradGradGradGrad

                          Input orientation:                          
 ---------------------------------------------------------------------
 Center     Atomic      Atomic             Coordinates (Angstroms)
 Number     Number       Type             X           Y           Z
 ---------------------------------------------------------------------
      1          6           0       -0.454935    0.195746    0.001397
      2          6           0        1.006079    0.206786   -0.000668
      3          8           0        0.272122    1.449734   -0.003801
      4          1           0       -0.998968   -0.023318   -0.914147
      5          1           0       -0.996494   -0.017891    0.919763
      6          6           0        1.766743   -0.081504    1.280893
      7          1           0        2.005837   -1.144526    1.351953
      8          1           0        2.697827    0.487818    1.286528
      9          1           0        1.169591    0.206440    2.146704
     10          6           0        1.766690   -0.082937   -1.281803
     11          1           0        2.663983    0.537343   -1.316332
     12          1           0        2.064783   -1.132615   -1.319538
     13          1           0        1.147271    0.141051   -2.150948
 ---------------------------------------------------------------------
                    Distance matrix (angstroms):
                    1          2          3          4          5
     1  C    0.000000
     2  C    1.461057   0.000000
     3  O    1.449525   1.443476   0.000000
     4  H    1.087282   2.215312   2.148088   0.000000
     5  H    1.087348   2.215394   2.148553   1.833920   0.000000
     6  C    2.578727   1.517933   2.495801   3.531394   2.787461
     7  H    3.110584   2.157578   3.402062   3.926980   3.235751
     8  H    3.417129   2.144262   2.911061   4.332496   3.746767
     9  H    2.691011   2.153588   2.641193   3.758224   2.499526
    10  C    2.580675   1.517820   2.493212   2.790626   3.533598
    11  H    3.403049   2.142168   2.876838   3.727373   4.325216
    12  H    3.139808   2.157375   3.407833   3.283513   3.953289
    13  H    2.683774   2.155913   2.662476   2.482547   3.748367
                    6          7          8          9         10
     6  C    0.000000
     7  H    1.091893   0.000000
     8  H    1.091365   1.774170   0.000000
     9  H    1.090472   1.776526   1.776114   0.000000
    10  C    2.562697   2.849708   2.790896   3.492123   0.000000
    11  H    2.816663   3.222047   2.603551   3.786201   1.091363
    12  H    2.820622   2.672168   3.133389   3.822207   1.091837
    13  H    3.494397   3.828859   3.786913   4.298207   1.090533
                   11         12         13
    11  H    0.000000
    12  H    1.774207   0.000000
    13  H    1.775963   1.776316   0.000000
 Stoichiometry    C4H8O
 Framework group  C1[X(C4H8O)]
 Deg. of freedom    33
 Full point group                 C1      NOp   1
 Largest Abelian subgroup         C1      NOp   1
 Largest concise Abelian subgroup C1      NOp   1
                         Standard orientation:                         
 ---------------------------------------------------------------------
 Center     Atomic      Atomic             Coordinates (Angstroms)
 Number     Number       Type             X           Y           Z
 ---------------------------------------------------------------------
      1          6           0       -1.234929   -0.001494   -0.593217
      2          6           0        0.123132   -0.000143   -0.054369
      3          8           0       -1.010775    0.004347    0.838860
      4          1           0       -1.662174    0.914143   -0.994779
      5          1           0       -1.663206   -0.919763   -0.987786
      6          6           0        0.935606   -1.282311   -0.047217
      7          1           0        1.543026   -1.354338   -0.951697
      8          1           0        1.597653   -1.287950    0.820388
      9          1           0        0.274082   -2.147595    0.005680
     10          6           0        0.937999    1.280384   -0.050023
     11          1           0        1.550139    1.314965    0.852840
     12          1           0        1.595675    1.317132   -0.920781
     13          1           0        0.280155    2.150014   -0.065789
 ---------------------------------------------------------------------
 Rotational constants (GHZ):           6.4854229           5.4890171           3.9182281
 Standard basis: 6-311G(d) (5D, 7F)
 There are   119 symmetry adapted cartesian basis functions of A   symmetry.
 There are   114 symmetry adapted basis functions of A   symmetry.
   114 basis functions,   200 primitive gaussians,   119 cartesian basis functions
    20 alpha electrons       20 beta electrons
       nuclear repulsion energy       185.3647088467 Hartrees.
 NAtoms=   13 NActive=   13 NUniq=   13 SFac= 1.00D+00 NAtFMM=   60 NAOKFM=F Big=F
 Integral buffers will be    131072 words long.
 Raffenetti 2 integral format.
 Two-electron integral symmetry is turned on.
 Nuclear repulsion after empirical dispersion term =      185.3500296704 Hartrees.
 ------------------------------------------------------------------------------
 Polarizable Continuum Model (PCM)
 =================================
 Model                : PCM.
 Atomic radii         : UFF (Universal Force Field).
 Polarization charges : Total charges.
 Charge compensation  : None.
 Solution method      : On-the-fly selection.
 Cavity type          : Scaled VdW (van der Waals Surface) (Alpha=1.100).
 Cavity algorithm     : GePol (No added spheres)
                        Default sphere list used, NSphG=   13.
                        Lebedev-Laikov grids with approx.  5.0 points / Ang**2.
                        Smoothing algorithm: York/Karplus (Gamma=1.0000).
                        Polarization charges: spherical gaussians, with
                                              point-specific exponents (IZeta= 3).
                        Self-potential: point-specific (ISelfS= 7).
                        Self-field    : sphere-specific E.n sum rule (ISelfD= 2).
 1st derivatives      : Analytical E(r).r(x)/FMM algorithm (CHGder, D1EAlg=3).
                        Cavity 1st derivative terms included.
 Solvent              : Water, Eps=  78.355300 Eps(inf)=   1.777849
 ------------------------------------------------------------------------------
 Spheres list:
 ISph  on   Nord     Re0    Alpha      Xe            Ye            Ze
    1   C      1    1.9255  1.100     -1.234929     -0.001494     -0.593217
    2   C      2    1.9255  1.100      0.123132     -0.000143     -0.054369
    3   O      3    1.7500  1.100     -1.010775      0.004347      0.838860
    4   H      4    1.4430  1.100     -1.662174      0.914143     -0.994779
    5   H      5    1.4430  1.100     -1.663206     -0.919763     -0.987786
    6   C      6    1.9255  1.100      0.935606     -1.282311     -0.047217
    7   H      7    1.4430  1.100      1.543026     -1.354338     -0.951697
    8   H      8    1.4430  1.100      1.597653     -1.287950      0.820388
    9   H      9    1.4430  1.100      0.274082     -2.147595      0.005680
   10   C     10    1.9255  1.100      0.937999      1.280384     -0.050023
   11   H     11    1.4430  1.100      1.550139      1.314965      0.852840
   12   H     12    1.4430  1.100      1.595675      1.317132     -0.920781
   13   H     13    1.4430  1.100      0.280155      2.150014     -0.065789
 ------------------------------------------------------------------------------
 One-electron integrals computed using PRISM.
 NBasis=   114 RedAO= T EigKep=  1.94D-03  NBF=   114
 NBsUse=   114 1.00D-06 EigRej= -1.00D+00 NBFU=   114
 Initial guess from the checkpoint file:  "/home/kimariyb/g16/scratch/Gau-163026.chk"
 B after Tr=    -0.000000   -0.000000    0.000000
         Rot=    0.999967    0.000631    0.008028    0.000470 Ang=   0.92 deg.
 ExpMin= 1.03D-01 ExpMax= 8.59D+03 ExpMxC= 1.30D+03 IAcc=2 IRadAn=         4 AccDes= 0.00D+00
 Harris functional with IExCor=  402 and IRadAn=       4 diagonalized for initial guess.
 HarFok:  IExCor=  402 AccDes= 0.00D+00 IRadAn=         4 IDoV= 1 UseB2=F ITyADJ=14
 ICtDFT=  3500011 ScaDFX=  1.000000  1.000000  1.000000  1.000000
 FoFCou: FMM=F IPFlag=           0 FMFlag=      100000 FMFlg1=           0
         NFxFlg=           0 DoJE=T BraDBF=F KetDBF=T FulRan=T
         wScrn=  0.000000 ICntrl=       500 IOpCl=  0 I1Cent=   200000004 NGrid=           0
         NMat0=    1 NMatS0=      1 NMatT0=    0 NMatD0=    1 NMtDS0=    0 NMtDT0=    0
 Petite list used in FoFCou.
 Requested convergence on RMS density matrix=1.00D-08 within 128 cycles.
 Requested convergence on MAX density matrix=1.00D-06.
 Requested convergence on             energy=1.00D-06.
 No special actions if energy rises.
 Inv3:  Mode=1 IEnd=     3409068.
 Iteration    1 A*A^-1 deviation from unit magnitude is 2.89D-15 for    200.
 Iteration    1 A*A^-1 deviation from orthogonality  is 2.33D-15 for    766    380.
 Iteration    1 A^-1*A deviation from unit magnitude is 3.33D-15 for    543.
 Iteration    1 A^-1*A deviation from orthogonality  is 1.78D-15 for    950    723.
 Error on total polarization charges =  0.00909
 SCF Done:  E(RB3LYP) =  -232.501107164     A.U. after   10 cycles
            NFock= 10  Conv=0.37D-08     -V/T= 2.0038
 D1PCM: PCM CHGder 1st derivatives, ID1Alg=3 FixD1E=F DoIter=F DoCFld=F I1PDM=0.
 Calling FoFJK, ICntrl=      2127 FMM=F ISym2X=0 I1Cent= 0 IOpClX= 0 NMat=1 NMatS=1 NMatT=0.
 ***** Axes restored to original set *****
 -------------------------------------------------------------------
 Center     Atomic                   Forces (Hartrees/Bohr)
 Number     Number              X              Y              Z
 -------------------------------------------------------------------
      1        6          -0.002756076    0.002356842   -0.000026219
      2        6           0.007613603   -0.004703592   -0.000040630
      3        8          -0.002188166   -0.001987996    0.000052363
      4        1           0.000605318    0.000306821   -0.000325070
      5        1           0.000630951    0.000379519    0.000331885
      6        6          -0.005071049    0.002566935   -0.005235435
      7        1           0.000720847   -0.000420468    0.000541248
      8        1           0.001749381   -0.000050478    0.001674952
      9        1           0.000675343   -0.000151469    0.001230764
     10        6          -0.005231699    0.002253615    0.005227222
     11        1           0.001831371   -0.000112549   -0.001593000
     12        1           0.000690671   -0.000433850   -0.000670215
     13        1           0.000729506   -0.000003330   -0.001167866
 -------------------------------------------------------------------
 Cartesian Forces:  Max     0.007613603 RMS     0.002483067

 GradGradGradGradGradGradGradGradGradGradGradGradGradGradGradGradGradGrad
 Berny optimization.
 Using GEDIIS/GDIIS optimizer.
 FormGI is forming the generalized inverse of G from B-inverse, IUseBI=4.
 Internal  Forces:  Max     0.002844255 RMS     0.001068034
 Search for a local minimum.
 Step number   2 out of a maximum of   67
 All quantities printed in internal units (Hartrees-Bohrs-Radians)
 Mixed Optimization -- RFO/linear search
 Update second derivatives using D2CorX and points    1    2
 DE= -3.78D-03 DEPred=-3.62D-03 R= 1.04D+00
 TightC=F SS=  1.41D+00  RLast= 2.04D-01 DXNew= 5.0454D-01 6.1336D-01
 Trust test= 1.04D+00 RLast= 2.04D-01 DXMaxT set to 5.05D-01
 ITU=  1  0
 Use linear search instead of GDIIS.
     Eigenvalues ---    0.00237   0.00237   0.02035   0.03486   0.04571
     Eigenvalues ---    0.05547   0.05568   0.05666   0.05677   0.13827
     Eigenvalues ---    0.15581   0.16000   0.16000   0.16000   0.16000
     Eigenvalues ---    0.16000   0.16000   0.16228   0.17126   0.21470
     Eigenvalues ---    0.26567   0.27140   0.28519   0.33053   0.33415
     Eigenvalues ---    0.36053   0.37058   0.37230   0.37230   0.37230
     Eigenvalues ---    0.37230   0.38310   0.39035
 RFO step:  Lambda=-3.69052453D-04 EMin= 2.36673212D-03
 Quartic linear search produced a step of  0.11272.
 Iteration  1 RMS(Cart)=  0.01434881 RMS(Int)=  0.00019542
 Iteration  2 RMS(Cart)=  0.00019883 RMS(Int)=  0.00004594
 Iteration  3 RMS(Cart)=  0.00000004 RMS(Int)=  0.00004594
 Variable       Old X    -DE/DX   Delta X   Delta X   Delta X     New X
                                 (Linear)    (Quad)   (Total)
    R1        2.76100   0.00223   0.00014   0.01009   0.01021   2.77121
    R2        2.73921  -0.00136  -0.00232  -0.00937  -0.01167   2.72754
    R3        2.05466  -0.00009  -0.00394   0.00166  -0.00228   2.05239
    R4        2.05479  -0.00011  -0.00392   0.00160  -0.00233   2.05246
    R5        2.72777   0.00002   0.00123   0.00221   0.00344   2.73121
    R6        2.86848  -0.00284  -0.00470  -0.00873  -0.01344   2.85504
    R7        2.86826  -0.00283  -0.00472  -0.00868  -0.01341   2.85486
    R8        2.06338   0.00060   0.00466  -0.00052   0.00414   2.06752
    R9        2.06238   0.00148   0.00455   0.00214   0.00669   2.06907
   R10        2.06069   0.00057   0.00436  -0.00048   0.00388   2.06458
   R11        2.06238   0.00149   0.00455   0.00219   0.00674   2.06912
   R12        2.06327   0.00063   0.00465  -0.00044   0.00421   2.06748
   R13        2.06081   0.00052   0.00437  -0.00064   0.00374   2.06455
    A1        2.09518  -0.00046  -0.00209  -0.00157  -0.00372   2.09146
    A2        2.09522  -0.00046  -0.00209  -0.00151  -0.00366   2.09156
    A3        2.00673  -0.00014   0.00110  -0.00312  -0.00200   2.00472
    A4        2.00735  -0.00025   0.00117  -0.00409  -0.00290   2.00444
    A5        2.00688   0.00091   0.00188   0.00529   0.00711   2.01399
    A6        2.09264  -0.00038  -0.00238   0.00035  -0.00208   2.09056
    A7        2.09538  -0.00038  -0.00207   0.00030  -0.00183   2.09355
    A8        2.00443  -0.00020   0.00204  -0.00676  -0.00479   1.99964
    A9        2.00131  -0.00010   0.00169  -0.00607  -0.00446   1.99684
   A10        2.01004   0.00105   0.00223   0.00747   0.00956   2.01960
   A11        1.92792   0.00029   0.00195  -0.00004   0.00188   1.92980
   A12        1.91007   0.00235  -0.00006   0.01683   0.01669   1.92676
   A13        1.92386   0.00134   0.00149   0.00917   0.01058   1.93444
   A14        1.89728  -0.00148  -0.00150  -0.01075  -0.01227   1.88502
   A15        1.90214  -0.00093  -0.00096  -0.00681  -0.00780   1.89434
   A16        1.90217  -0.00166  -0.00095  -0.00891  -0.00999   1.89218
   A17        1.90734   0.00230  -0.00037   0.01648   0.01604   1.92338
   A18        1.92783   0.00045   0.00194   0.00120   0.00311   1.93094
   A19        1.92716   0.00127   0.00186   0.00848   0.01026   1.93742
   A20        1.89742  -0.00153  -0.00149  -0.01115  -0.01265   1.88476
   A21        1.90185  -0.00163  -0.00099  -0.00891  -0.01001   1.89184
   A22        1.90180  -0.00095  -0.00100  -0.00663  -0.00767   1.89413
    D1       -2.68583  -0.00060   0.00588  -0.01436  -0.00851  -2.69434
    D2        0.00357   0.00039   0.00040   0.00790   0.00830   0.01187
    D3        0.00084  -0.00037   0.00009  -0.00749  -0.00739  -0.00655
    D4        2.69024   0.00062  -0.00538   0.01477   0.00942   2.69966
    D5        1.61669   0.00072   0.00014   0.01681   0.01696   1.63365
    D6       -2.57822   0.00056  -0.00055   0.01413   0.01355  -2.56467
    D7       -0.48643   0.00082  -0.00085   0.01938   0.01857  -0.46786
    D8        2.80652  -0.00071  -0.00104   0.00621   0.00515   2.81168
    D9       -1.38839  -0.00087  -0.00173   0.00353   0.00175  -1.38664
   D10        0.70340  -0.00061  -0.00202   0.00878   0.00677   0.71016
   D11       -1.09383   0.00012   0.00623  -0.00273   0.00352  -1.09031
   D12        0.99445  -0.00004   0.00554  -0.00541   0.00011   0.99456
   D13        3.08623   0.00022   0.00525  -0.00016   0.00513   3.09136
   D14        2.51358  -0.00046   0.00208   0.02228   0.02438   2.53797
   D15       -1.68294  -0.00063   0.00121   0.01963   0.02083  -1.66211
   D16        0.42186  -0.00069   0.00239   0.01765   0.02001   0.44188
   D17        1.32438   0.00093   0.00333   0.03263   0.03600   1.36039
   D18       -2.87213   0.00077   0.00246   0.02997   0.03245  -2.83969
   D19       -0.76733   0.00070   0.00363   0.02800   0.03163  -0.73570
   D20       -1.05982   0.00015  -0.00409   0.04187   0.03779  -1.02202
   D21        1.02685  -0.00002  -0.00496   0.03922   0.03424   1.06109
   D22        3.13165  -0.00008  -0.00379   0.03724   0.03342  -3.11811
         Item               Value     Threshold  Converged?
 Maximum Force            0.002844     0.000450     NO 
 RMS     Force            0.001068     0.000300     NO 
 Maximum Displacement     0.045928     0.001800     NO 
 RMS     Displacement     0.014371     0.001200     NO 
 Predicted change in Energy=-2.254004D-04
 GradGradGradGradGradGradGradGradGradGradGradGradGradGradGradGradGradGrad

                          Input orientation:                          
 ---------------------------------------------------------------------
 Center     Atomic      Atomic             Coordinates (Angstroms)
 Number     Number       Type             X           Y           Z
 ---------------------------------------------------------------------
      1          6           0       -0.457253    0.192195    0.002203
      2          6           0        1.009179    0.200841   -0.001053
      3          8           0        0.266697    1.440829   -0.006415
      4          1           0       -0.998269   -0.028283   -0.913359
      5          1           0       -0.994374   -0.017571    0.922609
      6          6           0        1.764041   -0.073873    1.278518
      7          1           0        2.017239   -1.135497    1.355092
      8          1           0        2.696813    0.499029    1.301772
      9          1           0        1.166334    0.204375    2.149688
     10          6           0        1.762280   -0.081463   -1.279893
     11          1           0        2.680481    0.513840   -1.317246
     12          1           0        2.041775   -1.137648   -1.337617
     13          1           0        1.155585    0.165356   -2.154298
 ---------------------------------------------------------------------
                    Distance matrix (angstroms):
                    1          2          3          4          5
     1  C    0.000000
     2  C    1.466461   0.000000
     3  O    1.443352   1.445295   0.000000
     4  H    1.086076   2.216900   2.140321   0.000000
     5  H    1.086117   2.216998   2.140167   1.836004   0.000000
     6  C    2.575640   1.510823   2.487451   3.526579   2.781851
     7  H    3.117080   2.154325   3.399346   3.932567   3.241391
     8  H    3.425079   2.152761   2.916129   4.340333   3.746399
     9  H    2.692188   2.156478   2.643283   3.757910   2.494722
    10  C    2.577787   1.510725   2.485133   2.785283   3.529057
    11  H    3.419032   2.150252   2.898955   3.740351   4.336348
    12  H    3.131891   2.155044   3.401697   3.263825   3.947328
    13  H    2.693040   2.158508   2.651482   2.493293   3.758077
                    6          7          8          9         10
     6  C    0.000000
     7  H    1.094084   0.000000
     8  H    1.094906   1.770971   0.000000
     9  H    1.092526   1.775016   1.774303   0.000000
    10  C    2.558423   2.849410   2.806300   3.492690   0.000000
    11  H    2.814828   3.209609   2.619110   3.795792   1.094931
    12  H    2.837766   2.692822   3.173982   3.837801   1.094065
    13  H    3.494520   3.840636   3.798834   4.304176   1.092512
                   11         12         13
    11  H    0.000000
    12  H    1.770812   0.000000
    13  H    1.774093   1.774857   0.000000
 Stoichiometry    C4H8O
 Framework group  C1[X(C4H8O)]
 Deg. of freedom    33
 Full point group                 C1      NOp   1
 Largest Abelian subgroup         C1      NOp   1
 Largest concise Abelian subgroup C1      NOp   1
                         Standard orientation:                         
 ---------------------------------------------------------------------
 Center     Atomic      Atomic             Coordinates (Angstroms)
 Number     Number       Type             X           Y           Z
 ---------------------------------------------------------------------
      1          6           0       -1.237862   -0.000313   -0.588777
      2          6           0        0.128915   -0.000182   -0.057337
      3          8           0       -1.007206    0.005164    0.836015
      4          1           0       -1.663164    0.916678   -0.986026
      5          1           0       -1.666150   -0.919307   -0.978224
      6          6           0        0.930157   -1.280999   -0.047060
      7          1           0        1.545451   -1.356748   -0.948556
      8          1           0        1.597000   -1.306970    0.820965
      9          1           0        0.271179   -2.151255   -0.002158
     10          6           0        0.935123    1.277417   -0.049771
     11          1           0        1.580452    1.312056    0.834099
     12          1           0        1.573246    1.335904   -0.936538
     13          1           0        0.281629    2.152791   -0.034020
 ---------------------------------------------------------------------
 Rotational constants (GHZ):           6.5004446           5.5092368           3.9230757
 Standard basis: 6-311G(d) (5D, 7F)
 There are   119 symmetry adapted cartesian basis functions of A   symmetry.
 There are   114 symmetry adapted basis functions of A   symmetry.
   114 basis functions,   200 primitive gaussians,   119 cartesian basis functions
    20 alpha electrons       20 beta electrons
       nuclear repulsion energy       185.5240663937 Hartrees.
 NAtoms=   13 NActive=   13 NUniq=   13 SFac= 1.00D+00 NAtFMM=   60 NAOKFM=F Big=F
 Integral buffers will be    131072 words long.
 Raffenetti 2 integral format.
 Two-electron integral symmetry is turned on.
 Nuclear repulsion after empirical dispersion term =      185.5093984101 Hartrees.
 ------------------------------------------------------------------------------
 Polarizable Continuum Model (PCM)
 =================================
 Model                : PCM.
 Atomic radii         : UFF (Universal Force Field).
 Polarization charges : Total charges.
 Charge compensation  : None.
 Solution method      : On-the-fly selection.
 Cavity type          : Scaled VdW (van der Waals Surface) (Alpha=1.100).
 Cavity algorithm     : GePol (No added spheres)
                        Default sphere list used, NSphG=   13.
                        Lebedev-Laikov grids with approx.  5.0 points / Ang**2.
                        Smoothing algorithm: York/Karplus (Gamma=1.0000).
                        Polarization charges: spherical gaussians, with
                                              point-specific exponents (IZeta= 3).
                        Self-potential: point-specific (ISelfS= 7).
                        Self-field    : sphere-specific E.n sum rule (ISelfD= 2).
 1st derivatives      : Analytical E(r).r(x)/FMM algorithm (CHGder, D1EAlg=3).
                        Cavity 1st derivative terms included.
 Solvent              : Water, Eps=  78.355300 Eps(inf)=   1.777849
 ------------------------------------------------------------------------------
 Spheres list:
 ISph  on   Nord     Re0    Alpha      Xe            Ye            Ze
    1   C      1    1.9255  1.100     -1.237862     -0.000313     -0.588777
    2   C      2    1.9255  1.100      0.128915     -0.000182     -0.057337
    3   O      3    1.7500  1.100     -1.007206      0.005164      0.836015
    4   H      4    1.4430  1.100     -1.663164      0.916678     -0.986026
    5   H      5    1.4430  1.100     -1.666150     -0.919307     -0.978224
    6   C      6    1.9255  1.100      0.930157     -1.280999     -0.047060
    7   H      7    1.4430  1.100      1.545451     -1.356748     -0.948556
    8   H      8    1.4430  1.100      1.597000     -1.306970      0.820965
    9   H      9    1.4430  1.100      0.271179     -2.151255     -0.002158
   10   C     10    1.9255  1.100      0.935123      1.277417     -0.049771
   11   H     11    1.4430  1.100      1.580452      1.312056      0.834099
   12   H     12    1.4430  1.100      1.573246      1.335904     -0.936538
   13   H     13    1.4430  1.100      0.281629      2.152791     -0.034020
 ------------------------------------------------------------------------------
 One-electron integrals computed using PRISM.
 NBasis=   114 RedAO= T EigKep=  1.95D-03  NBF=   114
 NBsUse=   114 1.00D-06 EigRej= -1.00D+00 NBFU=   114
 Initial guess from the checkpoint file:  "/home/kimariyb/g16/scratch/Gau-163026.chk"
 B after Tr=     0.000000    0.000000    0.000000
         Rot=    0.999999   -0.000684   -0.001458    0.000479 Ang=  -0.19 deg.
 ExpMin= 1.03D-01 ExpMax= 8.59D+03 ExpMxC= 1.30D+03 IAcc=2 IRadAn=         4 AccDes= 0.00D+00
 Harris functional with IExCor=  402 and IRadAn=       4 diagonalized for initial guess.
 HarFok:  IExCor=  402 AccDes= 0.00D+00 IRadAn=         4 IDoV= 1 UseB2=F ITyADJ=14
 ICtDFT=  3500011 ScaDFX=  1.000000  1.000000  1.000000  1.000000
 FoFCou: FMM=F IPFlag=           0 FMFlag=      100000 FMFlg1=           0
         NFxFlg=           0 DoJE=T BraDBF=F KetDBF=T FulRan=T
         wScrn=  0.000000 ICntrl=       500 IOpCl=  0 I1Cent=   200000004 NGrid=           0
         NMat0=    1 NMatS0=      1 NMatT0=    0 NMatD0=    1 NMtDS0=    0 NMtDT0=    0
 Petite list used in FoFCou.
 Requested convergence on RMS density matrix=1.00D-08 within 128 cycles.
 Requested convergence on MAX density matrix=1.00D-06.
 Requested convergence on             energy=1.00D-06.
 No special actions if energy rises.
 Inv3:  Mode=1 IEnd=     3441123.
 Iteration    1 A*A^-1 deviation from unit magnitude is 2.33D-15 for      5.
 Iteration    1 A*A^-1 deviation from orthogonality  is 1.89D-15 for    800    573.
 Iteration    1 A^-1*A deviation from unit magnitude is 2.22D-15 for    763.
 Iteration    1 A^-1*A deviation from orthogonality  is 1.82D-15 for   1012    206.
 Error on total polarization charges =  0.00910
 SCF Done:  E(RB3LYP) =  -232.501351975     A.U. after    9 cycles
            NFock=  9  Conv=0.57D-08     -V/T= 2.0038
 D1PCM: PCM CHGder 1st derivatives, ID1Alg=3 FixD1E=F DoIter=F DoCFld=F I1PDM=0.
 Calling FoFJK, ICntrl=      2127 FMM=F ISym2X=0 I1Cent= 0 IOpClX= 0 NMat=1 NMatS=1 NMatT=0.
 ***** Axes restored to original set *****
 -------------------------------------------------------------------
 Center     Atomic                   Forces (Hartrees/Bohr)
 Number     Number              X              Y              Z
 -------------------------------------------------------------------
      1        6           0.000354845    0.001295448   -0.000147646
      2        6           0.002066394   -0.001009081   -0.000048978
      3        8          -0.001070576    0.000543802    0.000125500
      4        1          -0.000182464   -0.000309313   -0.000705098
      5        1          -0.000142107   -0.000342626    0.000689323
      6        6          -0.000693258    0.000234340    0.000122326
      7        1           0.000125559    0.000467211    0.000205914
      8        1          -0.000453152   -0.000410221    0.000141378
      9        1           0.000494335   -0.000285439   -0.000444734
     10        6          -0.000594381    0.000048150   -0.000067503
     11        1          -0.000378044   -0.000497466   -0.000197837
     12        1           0.000063688    0.000442728   -0.000216428
     13        1           0.000409161   -0.000177533    0.000543784
 -------------------------------------------------------------------
 Cartesian Forces:  Max     0.002066394 RMS     0.000579311

 GradGradGradGradGradGradGradGradGradGradGradGradGradGradGradGradGradGrad
 Berny optimization.
 Using GEDIIS/GDIIS optimizer.
 FormGI is forming the generalized inverse of G from B-inverse, IUseBI=4.
 Internal  Forces:  Max     0.001036344 RMS     0.000344462
 Search for a local minimum.
 Step number   3 out of a maximum of   67
 All quantities printed in internal units (Hartrees-Bohrs-Radians)
 Mixed Optimization -- En-DIIS/RFO-DIIS
 Update second derivatives using D2CorX and points    1    2    3
 DE= -2.45D-04 DEPred=-2.25D-04 R= 1.09D+00
 TightC=F SS=  1.41D+00  RLast= 1.10D-01 DXNew= 8.4853D-01 3.3023D-01
 Trust test= 1.09D+00 RLast= 1.10D-01 DXMaxT set to 5.05D-01
 ITU=  1  1  0
 Use linear search instead of GDIIS.
     Eigenvalues ---    0.00232   0.00241   0.02048   0.03482   0.04524
     Eigenvalues ---    0.05462   0.05498   0.05539   0.05566   0.11047
     Eigenvalues ---    0.15729   0.16000   0.16000   0.16000   0.16000
     Eigenvalues ---    0.16000   0.16038   0.16646   0.17211   0.21610
     Eigenvalues ---    0.26826   0.27159   0.28519   0.33053   0.33605
     Eigenvalues ---    0.36696   0.37154   0.37230   0.37230   0.37230
     Eigenvalues ---    0.37352   0.38997   0.41474
 RFO step:  Lambda=-4.02206441D-05 EMin= 2.32031654D-03
 Quartic linear search produced a step of  0.10105.
 Iteration  1 RMS(Cart)=  0.00739241 RMS(Int)=  0.00004031
 Iteration  2 RMS(Cart)=  0.00004373 RMS(Int)=  0.00000809
 Iteration  3 RMS(Cart)=  0.00000000 RMS(Int)=  0.00000809
 Variable       Old X    -DE/DX   Delta X   Delta X   Delta X     New X
                                 (Linear)    (Quad)   (Total)
    R1        2.77121   0.00002   0.00103   0.00057   0.00160   2.77281
    R2        2.72754  -0.00008  -0.00118  -0.00199  -0.00317   2.72437
    R3        2.05239   0.00075  -0.00023   0.00228   0.00205   2.05443
    R4        2.05246   0.00072  -0.00024   0.00219   0.00195   2.05442
    R5        2.73121   0.00104   0.00035   0.00391   0.00426   2.73547
    R6        2.85504  -0.00024  -0.00136  -0.00099  -0.00235   2.85270
    R7        2.85486  -0.00027  -0.00135  -0.00108  -0.00244   2.85242
    R8        2.06752  -0.00041   0.00042  -0.00100  -0.00058   2.06694
    R9        2.06907  -0.00060   0.00068  -0.00159  -0.00092   2.06816
   R10        2.06458  -0.00070   0.00039  -0.00185  -0.00146   2.06311
   R11        2.06912  -0.00058   0.00068  -0.00154  -0.00086   2.06826
   R12        2.06748  -0.00040   0.00043  -0.00097  -0.00055   2.06694
   R13        2.06455  -0.00070   0.00038  -0.00186  -0.00148   2.06306
    A1        2.09146  -0.00023  -0.00038  -0.00262  -0.00301   2.08844
    A2        2.09156  -0.00021  -0.00037  -0.00301  -0.00340   2.08816
    A3        2.00472   0.00003  -0.00020   0.00225   0.00205   2.00678
    A4        2.00444  -0.00017  -0.00029   0.00228   0.00198   2.00643
    A5        2.01399   0.00025   0.00072   0.00144   0.00214   2.01613
    A6        2.09056  -0.00011  -0.00021  -0.00227  -0.00248   2.08808
    A7        2.09355  -0.00045  -0.00018  -0.00416  -0.00434   2.08921
    A8        1.99964  -0.00018  -0.00048   0.00065   0.00015   1.99979
    A9        1.99684  -0.00000  -0.00045   0.00244   0.00197   1.99881
   A10        2.01960   0.00057   0.00097   0.00400   0.00494   2.02455
   A11        1.92980   0.00037   0.00019   0.00263   0.00281   1.93261
   A12        1.92676   0.00015   0.00169   0.00060   0.00228   1.92904
   A13        1.93444   0.00016   0.00107   0.00115   0.00221   1.93665
   A14        1.88502  -0.00029  -0.00124  -0.00216  -0.00341   1.88161
   A15        1.89434  -0.00025  -0.00079  -0.00137  -0.00216   1.89218
   A16        1.89218  -0.00016  -0.00101  -0.00103  -0.00205   1.89013
   A17        1.92338   0.00035   0.00162   0.00221   0.00382   1.92720
   A18        1.93094   0.00035   0.00031   0.00244   0.00275   1.93369
   A19        1.93742  -0.00009   0.00104  -0.00076   0.00027   1.93769
   A20        1.88476  -0.00034  -0.00128  -0.00204  -0.00333   1.88144
   A21        1.89184  -0.00014  -0.00101  -0.00081  -0.00184   1.89000
   A22        1.89413  -0.00016  -0.00077  -0.00117  -0.00195   1.89218
    D1       -2.69434   0.00006  -0.00086   0.00601   0.00514  -2.68921
    D2        0.01187   0.00025   0.00084   0.00067   0.00151   0.01338
    D3       -0.00655  -0.00037  -0.00075  -0.00402  -0.00477  -0.01132
    D4        2.69966  -0.00019   0.00095  -0.00936  -0.00840   2.69127
    D5        1.63365   0.00016   0.00171   0.01077   0.01248   1.64613
    D6       -2.56467   0.00013   0.00137   0.01014   0.01150  -2.55317
    D7       -0.46786   0.00013   0.00188   0.00999   0.01187  -0.45599
    D8        2.81168  -0.00024   0.00052   0.00840   0.00892   2.82060
    D9       -1.38664  -0.00027   0.00018   0.00777   0.00794  -1.37870
   D10        0.71016  -0.00027   0.00068   0.00763   0.00831   0.71848
   D11       -1.09031   0.00022   0.00036   0.01778   0.01813  -1.07218
   D12        0.99456   0.00019   0.00001   0.01715   0.01716   1.01171
   D13        3.09136   0.00019   0.00052   0.01700   0.01753   3.10889
   D14        2.53797  -0.00014   0.00246   0.00326   0.00572   2.54369
   D15       -1.66211  -0.00012   0.00210   0.00368   0.00578  -1.65632
   D16        0.44188  -0.00015   0.00202   0.00332   0.00534   0.44722
   D17        1.36039   0.00026   0.00364   0.00531   0.00896   1.36934
   D18       -2.83969   0.00028   0.00328   0.00573   0.00902  -2.83067
   D19       -0.73570   0.00026   0.00320   0.00537   0.00857  -0.72713
   D20       -1.02202  -0.00012   0.00382  -0.00328   0.00054  -1.02148
   D21        1.06109  -0.00010   0.00346  -0.00286   0.00060   1.06169
   D22       -3.11811  -0.00012   0.00338  -0.00321   0.00015  -3.11796
         Item               Value     Threshold  Converged?
 Maximum Force            0.001036     0.000450     NO 
 RMS     Force            0.000344     0.000300     NO 
 Maximum Displacement     0.022289     0.001800     NO 
 RMS     Displacement     0.007393     0.001200     NO 
 Predicted change in Energy=-2.230187D-05
 GradGradGradGradGradGradGradGradGradGradGradGradGradGradGradGradGradGrad

                          Input orientation:                          
 ---------------------------------------------------------------------
 Center     Atomic      Atomic             Coordinates (Angstroms)
 Number     Number       Type             X           Y           Z
 ---------------------------------------------------------------------
      1          6           0       -0.454748    0.195981    0.001640
      2          6           0        1.012534    0.203896   -0.000846
      3          8           0        0.266386    1.444313   -0.006035
      4          1           0       -0.993064   -0.028899   -0.915726
      5          1           0       -0.989729   -0.019119    0.923281
      6          6           0        1.762721   -0.072257    1.279699
      7          1           0        2.026937   -1.131108    1.352983
      8          1           0        2.690451    0.507338    1.313567
      9          1           0        1.160319    0.193926    2.150435
     10          6           0        1.759853   -0.083060   -1.280519
     11          1           0        2.682207    0.504514   -1.324058
     12          1           0        2.033715   -1.140238   -1.341501
     13          1           0        1.152949    0.166841   -2.152920
 ---------------------------------------------------------------------
                    Distance matrix (angstroms):
                    1          2          3          4          5
     1  C    0.000000
     2  C    1.467306   0.000000
     3  O    1.441675   1.447548   0.000000
     4  H    1.087159   2.216669   2.141053   0.000000
     5  H    1.087151   2.216485   2.140815   1.839036   0.000000
     6  C    2.573433   1.509582   2.488395   3.523652   2.775939
     7  H    3.121867   2.155018   3.402831   3.934757   3.243676
     8  H    3.422042   2.152943   2.914680   4.338845   3.738075
     9  H    2.688079   2.156375   2.648196   3.753405   2.484754
    10  C    2.574151   1.509434   2.487493   2.777510   3.524348
    11  H    3.419525   2.151527   2.908023   3.736159   4.336801
    12  H    3.127612   2.155658   3.403942   3.252346   3.940477
    13  H    2.688432   2.156968   2.650857   2.484821   3.753487
                    6          7          8          9         10
     6  C    0.000000
     7  H    1.093777   0.000000
     8  H    1.094422   1.768138   0.000000
     9  H    1.091753   1.772759   1.771971   0.000000
    10  C    2.560242   2.846941   2.818487   3.493939   0.000000
    11  H    2.820934   3.204869   2.637640   3.805879   1.094475
    12  H    2.843362   2.694508   3.192991   3.838806   1.093775
    13  H    3.494547   3.839255   3.807412   4.303447   1.091726
                   11         12         13
    11  H    0.000000
    12  H    1.768065   0.000000
    13  H    1.771910   1.772739   0.000000
 Stoichiometry    C4H8O
 Framework group  C1[X(C4H8O)]
 Deg. of freedom    33
 Full point group                 C1      NOp   1
 Largest Abelian subgroup         C1      NOp   1
 Largest concise Abelian subgroup C1      NOp   1
                         Standard orientation:                         
 ---------------------------------------------------------------------
 Center     Atomic      Atomic             Coordinates (Angstroms)
 Number     Number       Type             X           Y           Z
 ---------------------------------------------------------------------
      1          6           0       -1.234701   -0.000281   -0.589666
      2          6           0        0.131458   -0.000010   -0.054319
      3          8           0       -1.011039    0.001775    0.834552
      4          1           0       -1.655972    0.918698   -0.989570
      5          1           0       -1.656527   -0.920335   -0.986477
      6          6           0        0.930661   -1.280658   -0.047080
      7          1           0        1.558169   -1.350481   -0.940224
      8          1           0        1.587701   -1.318018    0.827369
      9          1           0        0.272759   -2.151459   -0.018906
     10          6           0        0.932078    1.279584   -0.048124
     11          1           0        1.581238    1.319609    0.832140
     12          1           0        1.567996    1.344005   -0.935707
     13          1           0        0.275975    2.151972   -0.029906
 ---------------------------------------------------------------------
 Rotational constants (GHZ):           6.4927547           5.5154117           3.9221457
 Standard basis: 6-311G(d) (5D, 7F)
 There are   119 symmetry adapted cartesian basis functions of A   symmetry.
 There are   114 symmetry adapted basis functions of A   symmetry.
   114 basis functions,   200 primitive gaussians,   119 cartesian basis functions
    20 alpha electrons       20 beta electrons
       nuclear repulsion energy       185.5262778206 Hartrees.
 NAtoms=   13 NActive=   13 NUniq=   13 SFac= 1.00D+00 NAtFMM=   60 NAOKFM=F Big=F
 Integral buffers will be    131072 words long.
 Raffenetti 2 integral format.
 Two-electron integral symmetry is turned on.
 Nuclear repulsion after empirical dispersion term =      185.5116109182 Hartrees.
 ------------------------------------------------------------------------------
 Polarizable Continuum Model (PCM)
 =================================
 Model                : PCM.
 Atomic radii         : UFF (Universal Force Field).
 Polarization charges : Total charges.
 Charge compensation  : None.
 Solution method      : On-the-fly selection.
 Cavity type          : Scaled VdW (van der Waals Surface) (Alpha=1.100).
 Cavity algorithm     : GePol (No added spheres)
                        Default sphere list used, NSphG=   13.
                        Lebedev-Laikov grids with approx.  5.0 points / Ang**2.
                        Smoothing algorithm: York/Karplus (Gamma=1.0000).
                        Polarization charges: spherical gaussians, with
                                              point-specific exponents (IZeta= 3).
                        Self-potential: point-specific (ISelfS= 7).
                        Self-field    : sphere-specific E.n sum rule (ISelfD= 2).
 1st derivatives      : Analytical E(r).r(x)/FMM algorithm (CHGder, D1EAlg=3).
                        Cavity 1st derivative terms included.
 Solvent              : Water, Eps=  78.355300 Eps(inf)=   1.777849
 ------------------------------------------------------------------------------
 Spheres list:
 ISph  on   Nord     Re0    Alpha      Xe            Ye            Ze
    1   C      1    1.9255  1.100     -1.234701     -0.000281     -0.589666
    2   C      2    1.9255  1.100      0.131458     -0.000010     -0.054319
    3   O      3    1.7500  1.100     -1.011039      0.001775      0.834552
    4   H      4    1.4430  1.100     -1.655972      0.918698     -0.989570
    5   H      5    1.4430  1.100     -1.656527     -0.920335     -0.986477
    6   C      6    1.9255  1.100      0.930661     -1.280658     -0.047080
    7   H      7    1.4430  1.100      1.558169     -1.350481     -0.940224
    8   H      8    1.4430  1.100      1.587701     -1.318018      0.827369
    9   H      9    1.4430  1.100      0.272759     -2.151459     -0.018906
   10   C     10    1.9255  1.100      0.932078      1.279584     -0.048124
   11   H     11    1.4430  1.100      1.581238      1.319609      0.832140
   12   H     12    1.4430  1.100      1.567996      1.344005     -0.935707
   13   H     13    1.4430  1.100      0.275975      2.151972     -0.029906
 ------------------------------------------------------------------------------
 One-electron integrals computed using PRISM.
 NBasis=   114 RedAO= T EigKep=  1.95D-03  NBF=   114
 NBsUse=   114 1.00D-06 EigRej= -1.00D+00 NBFU=   114
 Initial guess from the checkpoint file:  "/home/kimariyb/g16/scratch/Gau-163026.chk"
 B after Tr=    -0.000000   -0.000000   -0.000000
         Rot=    0.999999   -0.000809    0.001199   -0.000693 Ang=  -0.18 deg.
 ExpMin= 1.03D-01 ExpMax= 8.59D+03 ExpMxC= 1.30D+03 IAcc=2 IRadAn=         4 AccDes= 0.00D+00
 Harris functional with IExCor=  402 and IRadAn=       4 diagonalized for initial guess.
 HarFok:  IExCor=  402 AccDes= 0.00D+00 IRadAn=         4 IDoV= 1 UseB2=F ITyADJ=14
 ICtDFT=  3500011 ScaDFX=  1.000000  1.000000  1.000000  1.000000
 FoFCou: FMM=F IPFlag=           0 FMFlag=      100000 FMFlg1=           0
         NFxFlg=           0 DoJE=T BraDBF=F KetDBF=T FulRan=T
         wScrn=  0.000000 ICntrl=       500 IOpCl=  0 I1Cent=   200000004 NGrid=           0
         NMat0=    1 NMatS0=      1 NMatT0=    0 NMatD0=    1 NMtDS0=    0 NMtDT0=    0
 Petite list used in FoFCou.
 Requested convergence on RMS density matrix=1.00D-08 within 128 cycles.
 Requested convergence on MAX density matrix=1.00D-06.
 Requested convergence on             energy=1.00D-06.
 No special actions if energy rises.
 Inv3:  Mode=1 IEnd=     3434700.
 Iteration    1 A*A^-1 deviation from unit magnitude is 2.66D-15 for    762.
 Iteration    1 A*A^-1 deviation from orthogonality  is 1.55D-15 for    798    572.
 Iteration    1 A^-1*A deviation from unit magnitude is 2.66D-15 for    207.
 Iteration    1 A^-1*A deviation from orthogonality  is 1.55D-15 for    840    547.
 Error on total polarization charges =  0.00910
 SCF Done:  E(RB3LYP) =  -232.501372847     A.U. after    9 cycles
            NFock=  9  Conv=0.99D-09     -V/T= 2.0038
 D1PCM: PCM CHGder 1st derivatives, ID1Alg=3 FixD1E=F DoIter=F DoCFld=F I1PDM=0.
 Calling FoFJK, ICntrl=      2127 FMM=F ISym2X=0 I1Cent= 0 IOpClX= 0 NMat=1 NMatS=1 NMatT=0.
 ***** Axes restored to original set *****
 -------------------------------------------------------------------
 Center     Atomic                   Forces (Hartrees/Bohr)
 Number     Number              X              Y              Z
 -------------------------------------------------------------------
      1        6           0.000292669    0.000177636   -0.000023940
      2        6           0.000099316   -0.000985989    0.000031823
      3        8          -0.000229087    0.000228751    0.000023739
      4        1          -0.000123773    0.000036019   -0.000007915
      5        1          -0.000139322    0.000009537    0.000002242
      6        6           0.000193440    0.000232210    0.000457364
      7        1          -0.000078165    0.000153063   -0.000078016
      8        1          -0.000155789   -0.000078821   -0.000077826
      9        1           0.000058612   -0.000033429   -0.000186345
     10        6           0.000324398    0.000245623   -0.000472005
     11        1          -0.000136949   -0.000130473    0.000010713
     12        1          -0.000125910    0.000148813    0.000113104
     13        1           0.000020562   -0.000002940    0.000207062
 -------------------------------------------------------------------
 Cartesian Forces:  Max     0.000985989 RMS     0.000236030

 GradGradGradGradGradGradGradGradGradGradGradGradGradGradGradGradGradGrad
 Berny optimization.
 Using GEDIIS/GDIIS optimizer.
 FormGI is forming the generalized inverse of G from B-inverse, IUseBI=4.
 Internal  Forces:  Max     0.000313177 RMS     0.000103804
 Search for a local minimum.
 Step number   4 out of a maximum of   67
 All quantities printed in internal units (Hartrees-Bohrs-Radians)
[...]
 ! R7    R(2,10)                 1.5096         -DE/DX =    0.0                 !
 ! R8    R(6,7)                  1.0935         -DE/DX =    0.0                 !
 ! R9    R(6,8)                  1.0941         -DE/DX =    0.0                 !
 ! R10   R(6,9)                  1.0914         -DE/DX =    0.0                 !
 ! R11   R(10,11)                1.0941         -DE/DX =    0.0                 !
 ! R12   R(10,12)                1.0935         -DE/DX =    0.0                 !
 ! R13   R(10,13)                1.0914         -DE/DX =    0.0                 !
 ! A1    A(2,1,4)              119.6886         -DE/DX =    0.0                 !
 ! A2    A(2,1,5)              119.6843         -DE/DX =    0.0                 !
 ! A3    A(3,1,4)              114.9739         -DE/DX =    0.0                 !
 ! A4    A(3,1,5)              114.9701         -DE/DX =    0.0                 !
 ! A5    A(4,1,5)              115.4375         -DE/DX =    0.0                 !
 ! A6    A(1,2,6)              119.6943         -DE/DX =    0.0                 !
 ! A7    A(1,2,10)             119.6954         -DE/DX =    0.0                 !
 ! A8    A(3,2,6)              114.4284         -DE/DX =    0.0                 !
 ! A9    A(3,2,10)             114.4271         -DE/DX =    0.0                 !
 ! A10   A(6,2,10)             116.09           -DE/DX =    0.0                 !
 ! A11   A(2,6,7)              110.7197         -DE/DX =    0.0                 !
 ! A12   A(2,6,8)              110.4704         -DE/DX =    0.0                 !
 ! A13   A(2,6,9)              110.9348         -DE/DX =    0.0                 !
 ! A14   A(7,6,8)              107.8298         -DE/DX =    0.0                 !
 ! A15   A(7,6,9)              108.4424         -DE/DX =    0.0                 !
 ! A16   A(8,6,9)              108.3438         -DE/DX =    0.0                 !
 ! A17   A(2,10,11)            110.4716         -DE/DX =    0.0                 !
 ! A18   A(2,10,12)            110.7215         -DE/DX =    0.0                 !
 ! A19   A(2,10,13)            110.9332         -DE/DX =    0.0                 !
 ! A20   A(11,10,12)           107.8287         -DE/DX =    0.0                 !
 ! A21   A(11,10,13)           108.343          -DE/DX =    0.0                 !
 ! A22   A(12,10,13)           108.443          -DE/DX =    0.0                 !
 ! D1    D(4,1,2,6)           -154.3103         -DE/DX =    0.0                 !
 ! D2    D(4,1,2,10)             0.9216         -DE/DX =    0.0                 !
 ! D3    D(5,1,2,6)             -0.9167         -DE/DX =    0.0                 !
 ! D4    D(5,1,2,10)           154.3152         -DE/DX =    0.0                 !
 ! D5    D(1,2,6,7)             94.6238         -DE/DX =    0.0                 !
 ! D6    D(1,2,6,8)           -145.9941         -DE/DX =    0.0                 !
 ! D7    D(1,2,6,9)            -25.8297         -DE/DX =    0.0                 !
 ! D8    D(3,2,6,7)            161.7973         -DE/DX =    0.0                 !
 ! D9    D(3,2,6,8)            -78.8206         -DE/DX =    0.0                 !
 ! D10   D(3,2,6,9)             41.3438         -DE/DX =    0.0                 !
 ! D11   D(10,2,6,7)           -61.4715         -DE/DX =    0.0                 !
 ! D12   D(10,2,6,8)            57.9106         -DE/DX =    0.0                 !
 ! D13   D(10,2,6,9)           178.075          -DE/DX =    0.0                 !
 ! D14   D(1,2,10,11)          145.9989         -DE/DX =    0.0                 !
 ! D15   D(1,2,10,12)          -94.6185         -DE/DX =    0.0                 !
 ! D16   D(1,2,10,13)           25.8359         -DE/DX =    0.0                 !
 ! D17   D(3,2,10,11)           78.8257         -DE/DX =    0.0                 !
 ! D18   D(3,2,10,12)         -161.7917         -DE/DX =    0.0                 !
 ! D19   D(3,2,10,13)          -41.3373         -DE/DX =    0.0                 !
 ! D20   D(6,2,10,11)          -57.9061         -DE/DX =    0.0                 !
 ! D21   D(6,2,10,12)           61.4766         -DE/DX =    0.0                 !
 ! D22   D(6,2,10,13)         -178.0691         -DE/DX =    0.0                 !
 --------------------------------------------------------------------------------
 GradGradGradGradGradGradGradGradGradGradGradGradGradGradGradGradGradGrad


 ----------------------------------------------------------------------

 Electric dipole moment (input orientation):
 (Debye = 10**-18 statcoulomb cm , SI units = C m)
                  (au)            (Debye)         (10**-30 SI)
   Tot        0.101146D+01      0.257088D+01      0.857553D+01
   x          0.127183D+00      0.323267D+00      0.107830D+01
   y         -0.100342D+01     -0.255045D+01     -0.850737D+01
   z          0.465082D-02      0.118212D-01      0.394313D-01

 Dipole polarizability, Alpha (input orientation).
 (esu units = cm**3 , SI units = C**2 m**2 J**-1)
 Alpha(0;0):
               (au)            (10**-24 esu)      (10**-40 SI)
   iso        0.584511D+02      0.866156D+01      0.963729D+01
   aniso      0.142014D+02      0.210443D+01      0.234149D+01
   xx         0.671044D+02      0.994384D+01      0.110640D+02
   yx        -0.739005D+00     -0.109509D+00     -0.121846D+00
   yy         0.508810D+02      0.753979D+01      0.838914D+01
   zx        -0.940283D-02     -0.139336D-02     -0.155032D-02
   zy         0.319219D-01      0.473033D-02      0.526320D-02
   zz         0.573680D+02      0.850106D+01      0.945871D+01

 ----------------------------------------------------------------------

 Dipole orientation:
     6         -0.79995665         -0.09659920         -0.47361164
     6          1.93111460          0.24425878         -0.13587865
     8          0.83552887          0.10751866         -2.64144491
     1         -1.63681304         -1.95165247         -0.18983476
     1         -2.06696274          1.49597908         -0.18988539
     6          2.95896223          2.81177260          0.56379451
     1          3.19077211          2.97345267          2.61079526
     1          4.80919385          3.11215765         -0.30850710
     1          1.69169884          4.31048911         -0.06969589
     6          3.55854557         -1.99184843          0.56370771
     1          5.42591956         -1.82814232         -0.30846399
     1          3.82289136         -2.09180870          2.61069788
     1          2.69860970         -3.75602085         -0.07003672

 Electric dipole moment (dipole orientation):
 (Debye = 10**-18 statcoulomb cm , SI units = C m)
                  (au)            (Debye)         (10**-30 SI)
   Tot        0.101146D+01      0.257088D+01      0.857553D+01
   x          0.000000D+00      0.000000D+00      0.000000D+00
   y          0.000000D+00      0.000000D+00      0.000000D+00
   z          0.101146D+01      0.257088D+01      0.857553D+01

 Dipole polarizability, Alpha (dipole orientation).
 (esu units = cm**3 , SI units = C**2 m**2 J**-1)
 Alpha(0;0):
               (au)            (10**-24 esu)      (10**-40 SI)
   iso        0.584511D+02      0.866156D+01      0.963729D+01
   aniso      0.142014D+02      0.210443D+01      0.234149D+01
   xx         0.665210D+02      0.985739D+01      0.109678D+02
   yx         0.114220D+01      0.169256D+00      0.188323D+00
   yy         0.575107D+02      0.852221D+01      0.948223D+01
   zx         0.271826D+01      0.402804D+00      0.448180D+00
   zy         0.339448D+00      0.503009D-01      0.559673D-01
   zz         0.513217D+02      0.760509D+01      0.846181D+01

 ----------------------------------------------------------------------
 1\1\GINC-LOCALHOST\Freq\RB3LYP\6-311G(d)\C4H8O1\KIMARIYB\21-Jul-2023\0
 \\#N Geom=AllCheck Guess=TCheck SCRF=Check GenChk RB3LYP/6-311G(d) Fre
 q\\Title Card Required\\0,1\C,-0.4545177449,0.1950289253,0.0013646235\
 C,1.0128271209,0.2008521,-0.0005974529\O,0.2664881588,1.4427418893,-0.
 0055787971\H,-0.9934040211,-0.028898195,-0.9161108277\H,-0.9909109074,
 -0.0200336808,0.9224193639\C,1.763444231,-0.0712869275,1.2805839342\H,
 2.0310126452,-1.128932089,1.3550176102\H,2.688830197,0.5114555377,1.31
 30412214\H,1.1597182218,0.1941360453,2.1501492502\C,1.7600909582,-0.08
 35388302,-1.2810764762\H,2.6854331552,0.4987909345,-1.3215120687\H,2.0
 274129114,-1.1418562505,-1.3461614752\H,1.1541038639,0.1736681009,-2.1
 515388994\\Version=ES64L-G16RevA.03\State=1-A\HF=-232.501377\RMSD=1.48
 5e-09\RMSF=2.370e-05\ZeroPoint=0.1129878\Thermal=0.1187617\Dipole=0.12
 7183,-1.0034229,0.0046508\DipoleDeriv=0.21943,0.0641197,-0.000098,0.22
 20726,0.3849396,-0.0003501,-0.0008667,-0.0001374,0.3745794,0.484442,-0
 .1358807,0.0007949,-0.2631582,0.4900424,0.0008377,0.0014135,0.0006639,
 0.594219,-0.5719418,0.0737042,-0.0003501,0.1327227,-1.1488232,0.002600
 9,-0.000641,0.0026689,-0.5734673,-0.0352837,-0.0612202,-0.075057,-0.06
 23707,0.0675252,-0.0049152,-0.1270261,-0.0486361,-0.1165669,-0.034742,
 -0.0603684,0.0754091,-0.0611338,0.0680222,0.0032993,0.1274103,0.047027
 ,-0.1176259,0.0806271,0.0667479,-0.0335521,0.0376774,0.1583319,-0.0063
 377,-0.0398381,0.0503508,-0.0861361,0.0551231,0.0519606,-0.0294851,0.0
 863352,-0.1673192,0.0323162,-0.038089,-0.012243,0.0658238,-0.1438639,-
 0.1058865,-0.0409156,-0.1531346,0.0019278,-0.0072669,-0.0132583,0.0439
 786,0.0513585,-0.0228334,0.0471943,0.1294031,0.0448981,0.0762409,-0.06
 58858,0.0707567,-0.0291659,-0.1116599,0.0808308,0.066927,0.032466,0.03
 80673,0.1578926,0.0039069,0.0390219,-0.052848,-0.0858803,-0.1437423,-0
 .1056005,0.0424374,-0.1529735,0.0015992,0.0081356,0.0152304,-0.0432276
 ,0.0515556,0.0553045,0.0522613,0.0290203,0.0865972,-0.1674985,-0.03032
 92,0.0373001,0.0143178,0.0658174,-0.0233504,0.0460412,-0.1300729,0.044
 4003,0.0771193,0.0639882,-0.071414,0.0272511,-0.1120173\Polar=67.10435
 9,-0.7390054,50.8809988,-0.0094028,0.0319219,57.3680177\Quadrupole=1.6
 289068,-2.4909146,0.8620078,1.2416109,-0.0069732,0.0144703\PG=C01 [X(C
 4H8O1)]\NImag=0\\0.60212607,0.11931920,0.25995172,-0.00048817,0.001741
 56,0.65408993,-0.29149309,-0.02474448,0.00042420,0.61827861,0.03060399
 ,0.01211668,-0.00038799,-0.07936477,0.29235434,0.00015649,-0.00031530,
 -0.06020650,0.00026119,0.00124078,0.52965637,-0.05881801,-0.05645683,0
 .00026652,-0.06556813,0.04050095,-0.00018913,0.15891099,-0.10534851,-0
 .17145078,0.00066359,0.08812965,-0.14871209,0.00030116,0.00972265,0.36
 382669,0.00050078,0.00059857,-0.06265464,-0.00041757,0.00036350,-0.061
 73710,-0.00012636,-0.00127470,0.10150299,-0.11200557,-0.02599966,-0.10
 901338,-0.00859402,-0.00737198,-0.02245984,-0.00837172,-0.00610339,-0.
 00216024,0.12133546,-0.01984291,-0.04816282,-0.03706054,0.00243864,-0.
 00353405,0.01520982,-0.02469728,-0.01035820,-0.02757898,0.03671735,0.0
 5571517,-0.11190871,-0.03910035,-0.26136886,0.00351809,0.00030374,0.00
 156312,-0.00042035,-0.00312069,0.00834282,0.12087612,0.04590847,0.2661
 5000,-0.11140452,-0.02484418,0.10884505,-0.00854606,-0.00715621,0.0225
 5840,-0.00836513,-0.00607532,0.00226388,0.00918388,0.00389941,-0.01283
 694,0.12068251,-0.01866528,-0.04744704,0.03504544,0.00236548,-0.003682
 06,-0.01516607,-0.02462066,-0.01006454,0.02782323,0.00401225,0.0039559
 6,-0.00382457,0.03543080,0.05485129,0.11168279,0.03710266,-0.26267620,
 -0.00351347,-0.00023354,0.00166033,0.00070264,0.00331401,0.00803796,0.
 01273042,0.00362102,-0.01607081,-0.12082314,-0.04396432,0.26766518,-0.
 01658940,0.00734748,-0.02551540,-0.10878291,0.00795122,-0.05141493,-0.
 00858455,0.00762369,-0.00475704,-0.00222389,0.00248398,0.00014773,0.00
 126849,-0.00117752,-0.00057726,0.55098207,-0.00596227,-0.00323470,-0.0
 1604074,0.00073394,-0.07064965,0.00941891,0.03028435,-0.01552541,0.032
 51578,-0.00245147,0.00242054,-0.00019208,0.00107881,0.00016561,0.00010
 342,-0.00002423,0.55961691,-0.00246639,0.00150191,0.00007862,-0.052647
 25,0.01533024,-0.18135229,-0.00308084,0.00320022,0.00282208,0.00133322
 ,-0.00051976,0.00021036,0.00128234,0.00017182,0.00037818,-0.04497405,0
 .01733776,0.51944173,0.00102692,0.00065528,0.00139801,-0.00463548,0.01
 614985,0.00159920,-0.00281887,0.00186095,-0.00488002,0.00003682,-0.000
 17767,-0.00002547,-0.00013545,-0.00011335,-0.00000266,-0.06140080,0.06
 027293,-0.00428287,0.06363823,0.00052040,-0.00033948,0.00047628,0.0008
 6910,-0.00502255,-0.00080612,0.00027703,0.00143302,0.00141518,0.000247
 29,0.00005049,-0.00002364,0.00007910,0.00005974,0.00004379,0.06113909,
 -0.29232056,0.01631557,-0.06806839,0.31701759,0.00084418,0.00026661,0.
 00123456,-0.00420577,0.02710083,0.00109882,-0.00474353,0.00282208,-0.0
 0474101,-0.00006317,-0.00020415,-0.00007431,-0.00027715,-0.00023838,0.
 00002719,-0.00374177,0.01484005,-0.05034777,0.00664979,-0.01795743,0.0
 5094599,0.00036758,-0.00114754,-0.00369174,-0.01734328,-0.00827136,-0.
 00095703,0.00127949,0.00120798,0.00072894,-0.00072841,0.00092690,-0.00
 014086,0.00044409,-0.00026552,0.00008898,-0.23091011,-0.11736232,-0.00
 349850,0.00845560,0.00394405,0.00049754,0.25127352,0.00224354,0.000322
 69,0.00158637,0.00672070,0.00293088,0.00027022,-0.00165801,0.00199497,
 -0.00122342,0.00032095,-0.00020502,0.00005219,-0.00018511,0.00001263,0
 .00006862,-0.11788225,-0.12235114,-0.00340694,-0.02715102,-0.01590182,
 -0.00048872,0.12950044,0.12831406,-0.00109060,-0.00048866,-0.00496156,
 -0.02758908,-0.01700650,-0.00133013,0.00264910,0.00063469,0.00199458,-
 0.00115583,0.00080664,0.00020004,-0.00008372,-0.00012921,0.00014452,-0
 .00280075,-0.00229537,-0.04910844,0.00194668,0.00074449,-0.00109353,0.
 00741243,0.00227164,0.05141177,0.00095122,-0.00063160,-0.00124069,0.00
 854905,-0.00472619,-0.01500343,0.00121474,-0.00088310,0.00116566,0.000
 09399,-0.00000154,0.00016728,-0.00030580,-0.00019650,-0.00011760,-0.13
 256008,0.03714066,0.12018424,-0.00462061,0.00098344,0.00451789,-0.0140
 3397,0.00796297,0.02061324,0.14136285,0.00013907,0.00068008,-0.0001471
 1,-0.00303709,-0.00137291,0.00550961,-0.00110520,0.00066898,0.00007546
 ,-0.00008452,-0.00007967,0.00006945,-0.00025947,-0.00003972,-0.0001399
 5,0.03634999,-0.06300687,-0.05318116,0.01711271,-0.00560845,-0.0252685
 1,-0.00921602,0.00480019,0.01531390,-0.04060834,0.06297326,0.00119173,
 -0.00124092,0.00016333,0.01728350,-0.00811014,-0.02386756,0.00094159,0
 .00049365,0.00300372,-0.00007430,-0.00020103,0.00028858,-0.00091641,0.
 00018708,0.00021040,0.11611877,-0.05078970,-0.21346740,-0.00278598,-0.
 00006599,0.00313829,-0.00086056,0.00147491,0.00148726,-0.12700681,0.05
 663010,0.23314762,-0.01651441,0.00758857,0.02548701,-0.10851127,0.0084
 0068,0.05114752,-0.00856450,0.00766080,0.00471483,0.00126704,-0.001172
 43,0.00058558,-0.00222785,0.00248387,-0.00016520,0.00951453,-0.0047732
 7,-0.01290628,0.00017926,0.00017879,0.00052207,0.00033186,0.00003831,-
 0.00056971,-0.00123947,0.00056765,-0.00462152,0.55120585,-0.00589554,-
 0.00309472,0.01608651,0.00121092,-0.07089649,-0.01048069,0.03022856,-0
 .01586907,-0.03241676,0.00106620,0.00016303,-0.00010433,-0.00246355,0.
 00242706,0.00017727,-0.00464030,0.00486662,0.00358298,-0.00015885,-0.0
 0013125,-0.00052667,0.00038891,-0.00006020,-0.00038306,0.00082537,0.00
 022320,0.00191422,0.00033876,0.55929244,0.00256594,-0.00149179,-0.0001
 3315,0.05244834,-0.01641162,-0.18137810,0.00282263,-0.00304153,0.00314
 084,-0.00129444,-0.00016669,0.00038269,-0.00130352,0.00049221,0.000207
 83,0.01285475,-0.00387787,-0.02731672,0.00052940,-0.00033829,0.0004763
 3,0.00084629,-0.00028787,0.00143150,-0.00244395,0.00094330,-0.00324387
 ,0.04488139,-0.01771693,0.51953704,0.00038068,-0.00111082,0.00368827,-
 0.01726771,-0.00821577,0.00107635,0.00127031,0.00119936,-0.00073816,0.
 00044393,-0.00026599,-0.00008732,-0.00072499,0.00092602,0.00013439,0.0
 0033124,0.00038168,-0.00084718,0.00006235,0.00001892,-0.00004973,0.000
 68265,0.00002291,0.00044377,0.00011797,0.00025544,0.00002614,-0.230894
 52,-0.11729693,0.00509301,0.25123684,0.00224925,0.00031152,-0.00164267
 ,0.00698362,0.00308982,-0.00033014,-0.00167982,0.00200050,0.00122749,-
 0.00018450,0.00001323,-0.00006682,0.00033179,-0.00021319,-0.00004908,0
 .00004458,-0.00005354,0.00030194,-0.00004222,-0.00000954,-0.00000854,0
 .00001915,0.00009397,0.00021690,0.00010686,0.00005614,0.00010529,-0.11
 782008,-0.12226619,0.00441156,0.12939633,0.12823875,0.00105518,0.00044
 081,-0.00496309,0.02756562,0.01698391,-0.00156325,-0.00263102,-0.00063
 770,0.00199750,0.00008464,0.00013116,0.00014387,0.00115519,-0.00080514
 ,0.00020477,0.00057206,0.00039628,0.00142579,-0.00004489,-0.00004949,-
 0.00003935,-0.00044683,-0.00022240,-0.00046402,-0.00017987,-0.00026336
 ,0.00033009,0.00440014,0.00329893,-0.04919484,-0.00916858,-0.00334123,
 0.05151004,0.00102132,0.00064117,-0.00140380,-0.00462779,0.01606242,-0
 .00173738,-0.00279394,0.00190072,0.00485721,-0.00013478,-0.00011271,0.
 00000414,0.00003704,-0.00017693,0.00002686,0.00017627,-0.00016249,-0.0
 0052696,0.00032050,-0.00019983,0.00015751,0.00006263,-0.00004175,0.000
 04499,-0.00010828,-0.00013848,-0.00005527,-0.06137248,0.06026396,0.003
 73917,0.00844724,-0.02716891,-0.00171352,0.06359618,0.00051104,-0.0003
 4634,-0.00046242,0.00091115,-0.00527243,0.00086471,0.00031841,0.001391
 89,-0.00147474,0.00008167,0.00006158,-0.00004435,0.00024795,0.00005267
 ,0.00002177,0.00017489,-0.00012315,0.00034338,-0.00020165,0.00054409,-
 0.00011317,0.00001951,-0.00000893,0.00004921,0.00001164,0.00022949,-0.
 00014542,0.06112141,-0.29261524,-0.01417531,0.00393510,-0.01590182,-0.
 00061380,-0.06807162,0.31735633,-0.00084862,-0.00025289,0.00124767,0.0
 0421026,-0.02708204,0.00134211,0.00473538,-0.00288604,-0.00472463,0.00
 027682,0.00023829,0.00002458,0.00006046,0.00020339,-0.00007674,-0.0005
 2285,0.00053280,0.00047076,-0.00015915,0.00009880,-0.00101263,0.000049
 37,0.00000836,-0.00004011,0.00010904,0.00022597,0.00038638,0.00319021,
 -0.01269823,-0.05009122,-0.00055996,0.00070061,-0.00108623,-0.00603609
 ,0.01560609,0.05065820,0.00095122,-0.00061657,0.00124412,0.00854209,-0
 .00456284,0.01496259,0.00120932,-0.00089549,-0.00115192,-0.00030274,-0
 .00019577,0.00012072,0.00009379,-0.00000265,-0.00016676,-0.00122085,0.
 00084368,0.00243053,-0.00010847,0.00001102,-0.00010785,0.00011836,0.00
 010833,0.00017945,0.00057839,0.00002428,0.00075911,-0.13317403,0.03613
 250,-0.12073902,-0.01408598,0.00776394,-0.02064813,-0.00462392,0.00094
 049,-0.00450488,0.14202282,0.00012802,0.00069319,0.00014171,-0.0032168
 5,-0.00134950,-0.00571689,-0.00111416,0.00066403,-0.00005061,-0.000250
 21,-0.00004024,0.00014298,-0.00008401,-0.00007838,-0.00006568,0.000609
 39,0.00019534,-0.00097796,-0.00013857,0.00022873,-0.00022400,0.0002558
 4,0.00005770,0.00026533,0.00001633,0.00047629,-0.00025205,0.03538694,-
 0.06203919,0.05166082,-0.00924624,0.00464033,-0.01531797,0.01720444,-0
 .00536814,0.02530487,-0.03955091,0.06191983,-0.00119461,0.00123778,0.0
 0014988,-0.01733806,0.00790883,-0.02388581,-0.00092664,-0.00046873,0.0
 0301490,0.00091999,-0.00018425,0.00020792,0.00007555,0.00020450,0.0002
 8740,0.00461073,-0.00194925,-0.00323491,0.00005795,0.00014684,0.000387
 42,-0.00002803,-0.00010297,0.00032813,-0.00076500,0.00023231,-0.001576
 83,-0.11666604,0.04926675,-0.21381832,0.00098900,-0.00152529,0.0016987
 3,0.00264314,0.00014404,0.00290187,0.12762204,-0.05491055,0.23353964\\
 -0.00006444,-0.00003120,-0.00000687,-0.00000944,0.00005497,0.00000039,
 0.00003511,-0.00006982,0.00000073,0.00001158,0.00000958,-0.00002399,0.
 00001450,0.00001290,0.00002858,0.00000006,0.00001154,-0.00000116,-0.00
 000221,0.00002736,0.00000214,-0.00001650,-0.00001969,0.00001343,0.0000
 2340,-0.00000824,-0.00002002,-0.00000249,0.00000568,0.00000510,-0.0000
 1108,-0.00001845,-0.00001555,-0.00000131,0.00003158,-0.00000334,0.0000
 2282,-0.00000619,0.00002055\\\@


 IF YOU GIVE EVERYONE A PIECE OF YOUR MIND,
 PRETTY SOON IT WILL BE ALL GONE.
 Job cpu time:       0 days  0 hours  3 minutes 56.9 seconds.
 Elapsed time:       0 days  0 hours  0 minutes 23.9 seconds.
 File lengths (MBytes):  RWF=     44 Int=      0 D2E=      0 Chk=      6 Scr=      1
 Normal termination of Gaussian 16 at Fri Jul 21 15:05:43 2023.
