 Entering Gaussian System, Link 0=g16
 Initial command:
 /home/kimariyb/g16/l1.exe "/home/kimariyb/g16/scratch/Gau-150377.inp" -scrdir="/home/kimariyb/g16/scratch/"
 Default is to use a total of  10 processors:
                               10 via shared-memory
                                1 via Linda
 Entering Link 1 = /home/kimariyb/g16/l1.exe PID=    150378.
  
 Copyright (c) 1988,1990,1992,1993,1995,1998,2003,2009,2016,
            Gaussian, Inc.  All Rights Reserved.
  
 This is part of the Gaussian(R) 16 program.  It is based on
 the Gaussian(R) 09 system (copyright 2009, Gaussian, Inc.),
 the Gaussian(R) 03 system (copyright 2003, Gaussian, Inc.),
 the Gaussian(R) 98 system (copyright 1998, Gaussian, Inc.),
 the Gaussian(R) 94 system (copyright 1995, Gaussian, Inc.),
 the Gaussian 92(TM) system (copyright 1992, Gaussian, Inc.),
 the Gaussian 90(TM) system (copyright 1990, Gaussian, Inc.),
 the Gaussian 88(TM) system (copyright 1988, Gaussian, Inc.),
 the Gaussian 86(TM) system (copyright 1986, Carnegie Mellon
 University), and the Gaussian 82(TM) system (copyright 1983,
 Carnegie Mellon University). Gaussian is a federally registered
 trademark of Gaussian, Inc.
  
 This software contains proprietary and confidential information,
 including trade secrets, belonging to Gaussian, Inc.
  
 This software is provided under written license and may be
 used, copied, transmitted, or stored only in accord with that
 written license.
  
 The following legend is applicable only to US Government
 contracts under FAR:
  
                    RESTRICTED RIGHTS LEGEND
  
 Use, reproduction and disclosure by the US Government is
 subject to restrictions as set forth in subparagraphs (a)
 and (c) of the Commercial Computer Software - Restricted
 Rights clause in FAR 52.227-19.
  
 Gaussian, Inc.
 340 Quinnipiac St., Bldg. 40, Wallingford CT 06492
  
  
 ---------------------------------------------------------------
 Warning -- This program may not be used in any manner that
 competes with the business of Gaussian, Inc. or will provide
 assistance to any competitor of Gaussian, Inc.  The licensee
 of this program is prohibited from giving any competitor of
 Gaussian, Inc. access to this program.  By using this program,
 the user acknowledges that Gaussian, Inc. is engaged in the
 business of creating and licensing software in the field of
 computational chemistry and represents and warrants to the
 licensee that it is not a competitor of Gaussian, Inc. and that
 it will not use this program in any manner prohibited above.
 ---------------------------------------------------------------
  

 Cite this work as:
 Gaussian 16, Revision A.03,
 M. J. Frisch, G. W. Trucks, H. B. Schlegel, G. E. Scuseria, 
 M. A. Robb, J. R. Cheeseman, G. Scalmani, V. Barone, 
 G. A. Petersson, H. Nakatsuji, X. Li, M. Caricato, A. V. Marenich, 
 J. Bloino, B. G. Janesko, R. Gomperts, B. Mennucci, H. P. Hratchian, 
 J. V. Ortiz, A. F. Izmaylov, J. L. Sonnenberg, D. Williams-Young, 
 F. Ding, F. Lipparini, F. Egidi, J. Goings, B. Peng, A. Petrone, 
 T. Henderson, D. Ranasinghe, V. G. Zakrzewski, J. Gao, N. Rega, 
 G. Zheng, W. Liang, M. Hada, M. Ehara, K. Toyota, R. Fukuda, 
 J. Hasegawa, M. Ishida, T. Nakajima, Y. Honda, O. Kitao, H. Nakai, 
 T. Vreven, K. Throssell, J. A. Montgomery, Jr., J. E. Peralta, 
 F. Ogliaro, M. J. Bearpark, J. J. Heyd, E. N. Brothers, K. N. Kudin, 
 V. N. Staroverov, T. A. Keith, R. Kobayashi, J. Normand, 
 K. Raghavachari, A. P. Rendell, J. C. Burant, S. S. Iyengar, 
 J. Tomasi, M. Cossi, J. M. Millam, M. Klene, C. Adamo, R. Cammi, 
 J. W. Ochterski, R. L. Martin, K. Morokuma, O. Farkas, 
 J. B. Foresman, and D. J. Fox, Gaussian, Inc., Wallingford CT, 2016.
 
 ******************************************
 Gaussian 16:  ES64L-G16RevA.03 25-Dec-2016
                13-Jul-2023 
 ******************************************
 ------------------------
 # opt freq b3lyp/6-311g*
 ------------------------
 1/18=20,19=15,26=3,38=1/1,3;
 2/9=110,12=2,17=6,18=5,40=1/2;
 3/5=4,6=6,7=1,11=2,25=1,30=1,71=1,74=-5/1,2,3;
 4//1;
 5/5=2,38=5/2;
 6/7=2,8=2,9=2,10=2,28=1/1;
 7//1,2,3,16;
 1/18=20,19=15,26=3/3(2);
 2/9=110/2;
 99//99;
 2/9=110/2;
 3/5=4,6=6,7=1,11=2,25=1,30=1,71=1,74=-5/1,2,3;
 4/5=5,16=3,69=1/1;
 5/5=2,38=5/2;
 7//1,2,3,16;
 1/18=20,19=15,26=3/3(-5);
 2/9=110/2;
 6/7=2,8=2,9=2,10=2,19=2,28=1/1;
 99/9=1/99;
 -------------------
 Title Card Required
 -------------------
 Symbolic Z-matrix:
 Charge =  0 Multiplicity = 1
 C                    -2.90154  -1.04764   0.27488 
 H                    -2.77507  -2.0567   -0.05784 
 H                    -3.54178  -0.38229  -0.26577 
 C                    -2.25082  -0.61231   1.38106 
 H                    -2.48498   0.34162   1.80542 
 O                    -1.39368  -1.49625   2.10828 
 C                    -0.41018  -0.73397   2.81295 
 H                    -0.89637  -0.06767   3.49454 
 H                     0.23118  -1.39538   3.3571 
 H                     0.17056  -0.16848   2.11448 
 

 GradGradGradGradGradGradGradGradGradGradGradGradGradGradGradGradGradGrad
 Berny optimization.
 Initialization pass.
                           ----------------------------
                           !    Initial Parameters    !
                           ! (Angstroms and Degrees)  !
 --------------------------                            --------------------------
 ! Name  Definition              Value          Derivative Info.                !
 --------------------------------------------------------------------------------
 ! R1    R(1,2)                  1.07           estimate D2E/DX2                !
 ! R2    R(1,3)                  1.07           estimate D2E/DX2                !
 ! R3    R(1,4)                  1.3552         estimate D2E/DX2                !
 ! R4    R(4,5)                  1.07           estimate D2E/DX2                !
 ! R5    R(4,6)                  1.43           estimate D2E/DX2                !
 ! R6    R(6,7)                  1.43           estimate D2E/DX2                !
 ! R7    R(7,8)                  1.07           estimate D2E/DX2                !
 ! R8    R(7,9)                  1.07           estimate D2E/DX2                !
 ! R9    R(7,10)                 1.07           estimate D2E/DX2                !
 ! A1    A(2,1,3)              120.0            estimate D2E/DX2                !
 ! A2    A(2,1,4)              120.0            estimate D2E/DX2                !
 ! A3    A(3,1,4)              120.0            estimate D2E/DX2                !
 ! A4    A(1,4,5)              120.3326         estimate D2E/DX2                !
 ! A5    A(1,4,6)              120.2881         estimate D2E/DX2                !
 ! A6    A(5,4,6)              118.723          estimate D2E/DX2                !
 ! A7    A(4,6,7)              109.4712         estimate D2E/DX2                !
 ! A8    A(6,7,8)              109.4712         estimate D2E/DX2                !
 ! A9    A(6,7,9)              109.4712         estimate D2E/DX2                !
 ! A10   A(6,7,10)             109.4712         estimate D2E/DX2                !
 ! A11   A(8,7,9)              109.4712         estimate D2E/DX2                !
 ! A12   A(8,7,10)             109.4712         estimate D2E/DX2                !
 ! A13   A(9,7,10)             109.4712         estimate D2E/DX2                !
 ! D1    D(2,1,4,5)           -170.597          estimate D2E/DX2                !
 ! D2    D(2,1,4,6)              0.0            estimate D2E/DX2                !
 ! D3    D(3,1,4,5)              9.403          estimate D2E/DX2                !
 ! D4    D(3,1,4,6)           -180.0            estimate D2E/DX2                !
 ! D5    D(1,4,6,7)            154.6266         estimate D2E/DX2                !
 ! D6    D(5,4,6,7)            -34.6266         estimate D2E/DX2                !
 ! D7    D(4,6,7,8)             60.0            estimate D2E/DX2                !
 ! D8    D(4,6,7,9)            180.0            estimate D2E/DX2                !
 ! D9    D(4,6,7,10)           -60.0            estimate D2E/DX2                !
 --------------------------------------------------------------------------------
 Trust Radius=3.00D-01 FncErr=1.00D-07 GrdErr=1.00D-06 EigMax=2.50D+02 EigMin=1.00D-04
 Number of steps in this run=     41 maximum allowed number of steps=    100.
 GradGradGradGradGradGradGradGradGradGradGradGradGradGradGradGradGradGrad

                          Input orientation:                          
 ---------------------------------------------------------------------
 Center     Atomic      Atomic             Coordinates (Angstroms)
 Number     Number       Type             X           Y           Z
 ---------------------------------------------------------------------
      1          6           0       -2.901536   -1.047637    0.274882
      2          1           0       -2.775073   -2.056696   -0.057845
      3          1           0       -3.541777   -0.382291   -0.265771
      4          6           0       -2.250815   -0.612310    1.381056
      5          1           0       -2.484982    0.341621    1.805416
      6          8           0       -1.393675   -1.496252    2.108282
      7          6           0       -0.410177   -0.733968    2.812948
      8          1           0       -0.896368   -0.067670    3.494538
      9          1           0        0.231180   -1.395380    3.357096
     10          1           0        0.170562   -0.168476    2.114479
 ---------------------------------------------------------------------
                    Distance matrix (angstroms):
                    1          2          3          4          5
     1  C    0.000000
     2  H    1.070000   0.000000
     3  H    1.070000   1.853294   0.000000
     4  C    1.355200   2.105120   2.105120   0.000000
     5  H    2.108575   3.050871   2.435299   1.070000   0.000000
     6  O    2.415834   2.629536   3.389894   1.430000   2.158809
     7  C    3.570299   3.947631   4.405577   2.335180   2.544962
     8  H    3.917552   4.483880   4.608373   2.568651   2.354644
     9  H    4.408501   4.597469   5.327919   3.267757   3.578047
    10  H    3.687116   4.118389   4.415061   2.568651   2.721697
                    6          7          8          9         10
     6  O    0.000000
     7  C    1.430000   0.000000
     8  H    2.051796   1.070000   0.000000
     9  H    2.051796   1.070000   1.747303   0.000000
    10  H    2.051796   1.070000   1.747303   1.747303   0.000000
 Stoichiometry    C3H6O
 Framework group  C1[X(C3H6O)]
 Deg. of freedom    24
 Full point group                 C1      NOp   1
 Largest Abelian subgroup         C1      NOp   1
 Largest concise Abelian subgroup C1      NOp   1
                         Standard orientation:                         
 ---------------------------------------------------------------------
 Center     Atomic      Atomic             Coordinates (Angstroms)
 Number     Number       Type             X           Y           Z
 ---------------------------------------------------------------------
      1          6           0        1.866944   -0.079741    0.118837
      2          1           0        2.042791   -1.128249    0.239706
      3          1           0        2.682344    0.610232    0.181760
      4          6           0        0.611486    0.374358   -0.113944
      5          1           0        0.448035    1.396783   -0.383815
      6          8           0       -0.482769   -0.542285   -0.199219
      7          6           0       -1.697005    0.131926    0.141326
      8          1           0       -1.857294    0.942889   -0.538046
      9          1           0       -2.515783   -0.553954    0.077519
     10          1           0       -1.626492    0.511321    1.139317
 ---------------------------------------------------------------------
 Rotational constants (GHZ):          34.3085293           4.5214280           4.1931679
 Standard basis: 6-311G(d) (5D, 7F)
 There are    94 symmetry adapted cartesian basis functions of A   symmetry.
 There are    90 symmetry adapted basis functions of A   symmetry.
    90 basis functions,   158 primitive gaussians,    94 cartesian basis functions
    16 alpha electrons       16 beta electrons
       nuclear repulsion energy       118.3820918429 Hartrees.
 NAtoms=   10 NActive=   10 NUniq=   10 SFac= 1.00D+00 NAtFMM=   60 NAOKFM=F Big=F
 Integral buffers will be    131072 words long.
 Raffenetti 2 integral format.
 Two-electron integral symmetry is turned on.
 One-electron integrals computed using PRISM.
 NBasis=    90 RedAO= T EigKep=  3.20D-03  NBF=    90
 NBsUse=    90 1.00D-06 EigRej= -1.00D+00 NBFU=    90
 ExpMin= 1.03D-01 ExpMax= 8.59D+03 ExpMxC= 1.30D+03 IAcc=3 IRadAn=         5 AccDes= 0.00D+00
 Harris functional with IExCor=  402 and IRadAn=       5 diagonalized for initial guess.
 HarFok:  IExCor=  402 AccDes= 0.00D+00 IRadAn=         5 IDoV= 1 UseB2=F ITyADJ=14
 ICtDFT=  3500011 ScaDFX=  1.000000  1.000000  1.000000  1.000000
 FoFCou: FMM=F IPFlag=           0 FMFlag=      100000 FMFlg1=           0
         NFxFlg=           0 DoJE=T BraDBF=F KetDBF=T FulRan=T
         wScrn=  0.000000 ICntrl=       500 IOpCl=  0 I1Cent=   200000004 NGrid=           0
         NMat0=    1 NMatS0=      1 NMatT0=    0 NMatD0=    1 NMtDS0=    0 NMtDT0=    0
 Petite list used in FoFCou.
 Keep R1 ints in memory in canonical form, NReq=17558572.
 Requested convergence on RMS density matrix=1.00D-08 within 128 cycles.
 Requested convergence on MAX density matrix=1.00D-06.
 Requested convergence on             energy=1.00D-06.
 No special actions if energy rises.
 Integral accuracy reduced to 1.0D-05 until final iterations.
 Initial convergence to 1.0D-05 achieved.  Increase integral accuracy.
 SCF Done:  E(RB3LYP) =  -193.150717137     A.U. after   13 cycles
            NFock= 13  Conv=0.19D-08     -V/T= 2.0036

 **********************************************************************

            Population analysis using the SCF density.

 **********************************************************************

 Orbital symmetries:
       Occupied  (A) (A) (A) (A) (A) (A) (A) (A) (A) (A) (A) (A)
                 (A) (A) (A) (A)
       Virtual   (A) (A) (A) (A) (A) (A) (A) (A) (A) (A) (A) (A)
                 (A) (A) (A) (A) (A) (A) (A) (A) (A) (A) (A) (A)
                 (A) (A) (A) (A) (A) (A) (A) (A) (A) (A) (A) (A)
                 (A) (A) (A) (A) (A) (A) (A) (A) (A) (A) (A) (A)
                 (A) (A) (A) (A) (A) (A) (A) (A) (A) (A) (A) (A)
                 (A) (A) (A) (A) (A) (A) (A) (A) (A) (A) (A) (A)
                 (A) (A)
 The electronic state is 1-A.
 Alpha  occ. eigenvalues --  -19.13934 -10.22496 -10.21087 -10.15769  -1.03973
 Alpha  occ. eigenvalues --   -0.76342  -0.68839  -0.58523  -0.50674  -0.47103
 Alpha  occ. eigenvalues --   -0.46385  -0.41100  -0.39946  -0.35143  -0.31870
 Alpha  occ. eigenvalues --   -0.23447
 Alpha virt. eigenvalues --    0.00922   0.05160   0.07407   0.09409   0.10628
 Alpha virt. eigenvalues --    0.11591   0.12526   0.13514   0.23183   0.28457
 Alpha virt. eigenvalues --    0.31093   0.33369   0.35458   0.39024   0.42117
 Alpha virt. eigenvalues --    0.42542   0.49330   0.50583   0.53540   0.57159
 Alpha virt. eigenvalues --    0.58071   0.59942   0.62010   0.65047   0.69275
 Alpha virt. eigenvalues --    0.72765   0.75516   0.82083   0.87025   0.95850
 Alpha virt. eigenvalues --    1.01420   1.19340   1.20165   1.30845   1.34040
 Alpha virt. eigenvalues --    1.42381   1.46926   1.49426   1.50969   1.53389
 Alpha virt. eigenvalues --    1.59708   1.66590   1.67925   1.70663   1.91944
 Alpha virt. eigenvalues --    1.94771   2.13187   2.26293   2.29912   2.34008
 Alpha virt. eigenvalues --    2.35480   2.39712   2.54803   2.60364   2.75929
 Alpha virt. eigenvalues --    2.82782   2.87138   2.95044   3.11088   3.14011
 Alpha virt. eigenvalues --    3.17154   3.21142   3.25115   3.30990   3.55540
 Alpha virt. eigenvalues --    3.85194   3.93480   4.86891   5.15956   5.52160
 Alpha virt. eigenvalues --   23.29600  23.42313  24.08552  49.84579
          Condensed to atoms (all electrons):
               1          2          3          4          5          6
     1  C    5.183042   0.375374   0.385526   0.637369  -0.057688  -0.054366
     2  H    0.375374   0.461663  -0.030120  -0.036965   0.008197   0.003729
     3  H    0.385526  -0.030120   0.470929  -0.033223  -0.004401   0.002945
     4  C    0.637369  -0.036965  -0.033223   4.876554   0.358018   0.317341
     5  H   -0.057688   0.008197  -0.004401   0.358018   0.529754  -0.039586
     6  O   -0.054366   0.003729   0.002945   0.317341  -0.039586   7.937869
     7  C    0.003421  -0.000283  -0.000479  -0.096934  -0.004795   0.259982
     8  H   -0.000790   0.000222   0.000034  -0.018224   0.011675  -0.035772
     9  H   -0.000226  -0.000017   0.000023   0.008413   0.000117  -0.020537
    10  H    0.003304   0.000118  -0.000129  -0.003308  -0.001624  -0.039641
               7          8          9         10
     1  C    0.003421  -0.000790  -0.000226   0.003304
     2  H   -0.000283   0.000222  -0.000017   0.000118
     3  H   -0.000479   0.000034   0.000023  -0.000129
     4  C   -0.096934  -0.018224   0.008413  -0.003308
     5  H   -0.004795   0.011675   0.000117  -0.001624
     6  O    0.259982  -0.035772  -0.020537  -0.039641
     7  C    5.146534   0.383635   0.383926   0.374767
     8  H    0.383635   0.533211  -0.028070  -0.051033
     9  H    0.383926  -0.028070   0.463160  -0.030001
    10  H    0.374767  -0.051033  -0.030001   0.537429
 Mulliken charges:
               1
     1  C   -0.474967
     2  H    0.218081
     3  H    0.208894
     4  C   -0.009043
     5  H    0.200334
     6  O   -0.331965
     7  C   -0.449773
     8  H    0.205111
     9  H    0.223213
    10  H    0.210117
 Sum of Mulliken charges =  -0.00000
 Mulliken charges with hydrogens summed into heavy atoms:
               1
     1  C   -0.047993
     4  C    0.191291
     6  O   -0.331965
     7  C    0.188668
 Electronic spatial extent (au):  <R**2>=            329.7772
 Charge=             -0.0000 electrons
 Dipole moment (field-independent basis, Debye):
    X=             -0.7915    Y=              1.4223    Z=              0.2767  Tot=              1.6511
 Quadrupole moment (field-independent basis, Debye-Ang):
   XX=            -21.4289   YY=            -24.6268   ZZ=            -27.1128
   XY=             -0.2343   XZ=             -0.1014   YZ=             -0.8258
 Traceless Quadrupole moment (field-independent basis, Debye-Ang):
   XX=              2.9606   YY=             -0.2373   ZZ=             -2.7233
   XY=             -0.2343   XZ=             -0.1014   YZ=             -0.8258
 Octapole moment (field-independent basis, Debye-Ang**2):
  XXX=             -6.3647  YYY=             -1.0296  ZZZ=             -0.6620  XYY=              0.6887
  XXY=             -1.2019  XXZ=              1.1534  XZZ=             -4.0026  YZZ=             -0.2438
  YYZ=             -0.7003  XYZ=             -0.1465
 Hexadecapole moment (field-independent basis, Debye-Ang**3):
 XXXX=           -324.1653 YYYY=            -59.2155 ZZZZ=            -39.3118 XXXY=              8.4297
 XXXZ=              3.4012 YYYX=              0.5001 YYYZ=             -1.4573 ZZZX=             -0.8161
 ZZZY=              0.3119 XXYY=            -62.9821 XXZZ=            -69.5990 YYZZ=            -16.9237
 XXYZ=             -0.4068 YYXZ=              0.6474 ZZXY=             -0.5291
 N-N= 1.183820918429D+02 E-N=-6.878222450801D+02  KE= 1.924612581698D+02
 Calling FoFJK, ICntrl=      2127 FMM=F ISym2X=0 I1Cent= 0 IOpClX= 0 NMat=1 NMatS=1 NMatT=0.
 ***** Axes restored to original set *****
 -------------------------------------------------------------------
 Center     Atomic                   Forces (Hartrees/Bohr)
 Number     Number              X              Y              Z
 -------------------------------------------------------------------
      1        6           0.021542617    0.011820992    0.032512421
      2        1           0.002735478   -0.007601903   -0.006489218
      3        1          -0.007877600    0.004003635   -0.002962920
      4        6          -0.003414739   -0.053480539   -0.017181213
      5        1           0.007562033    0.011910382    0.008372758
      6        8          -0.021350866    0.032008423   -0.015677174
      7        6          -0.011162636   -0.008185177   -0.008458790
      8        1          -0.005067069    0.011722793    0.013157566
      9        1           0.005346009   -0.011807941    0.005504264
     10        1           0.011686773    0.009609335   -0.008777695
 -------------------------------------------------------------------
 Cartesian Forces:  Max     0.053480539 RMS     0.016453074

 GradGradGradGradGradGradGradGradGradGradGradGradGradGradGradGradGradGrad
 Berny optimization.
 FormGI is forming the generalized inverse of G from B-inverse, IUseBI=4.
 Internal  Forces:  Max     0.040177624 RMS     0.011774308
 Search for a local minimum.
 Step number   1 out of a maximum of   41
 All quantities printed in internal units (Hartrees-Bohrs-Radians)
 Mixed Optimization -- RFO/linear search
 Second derivative matrix not updated -- first step.
 ITU=  0
     Eigenvalues ---    0.01295   0.01295   0.02298   0.02681   0.02681
     Eigenvalues ---    0.10344   0.10344   0.15919   0.16000   0.16000
     Eigenvalues ---    0.16000   0.16000   0.16000   0.22031   0.25000
     Eigenvalues ---    0.37230   0.37230   0.37230   0.37230   0.37230
     Eigenvalues ---    0.37230   0.40989   0.40989   0.53930
 RFO step:  Lambda=-1.29421781D-02 EMin= 1.29493784D-02
 Linear search not attempted -- first point.
 Iteration  1 RMS(Cart)=  0.05873885 RMS(Int)=  0.00244617
 Iteration  2 RMS(Cart)=  0.00293565 RMS(Int)=  0.00071013
 Iteration  3 RMS(Cart)=  0.00000453 RMS(Int)=  0.00071012
 Iteration  4 RMS(Cart)=  0.00000000 RMS(Int)=  0.00071012
 Variable       Old X    -DE/DX   Delta X   Delta X   Delta X     New X
                                 (Linear)    (Quad)   (Total)
    R1        2.02201   0.00951   0.00000   0.02469   0.02469   2.04669
    R2        2.02201   0.00870   0.00000   0.02258   0.02258   2.04459
    R3        2.56096  -0.02934   0.00000  -0.05313  -0.05313   2.50783
    R4        2.02201   0.01228   0.00000   0.03189   0.03189   2.05389
    R5        2.70231  -0.04018   0.00000  -0.09502  -0.09502   2.60729
    R6        2.70231   0.00197   0.00000   0.00466   0.00466   2.70696
    R7        2.02201   0.01798   0.00000   0.04668   0.04668   2.06869
    R8        2.02201   0.01330   0.00000   0.03453   0.03453   2.05654
    R9        2.02201   0.01715   0.00000   0.04452   0.04452   2.06653
    A1        2.09440  -0.00174   0.00000  -0.01006  -0.01007   2.08433
    A2        2.09440   0.00216   0.00000   0.01249   0.01248   2.10688
    A3        2.09440  -0.00042   0.00000  -0.00243  -0.00244   2.09195
    A4        2.10020   0.00745   0.00000   0.05001   0.04905   2.14925
    A5        2.09942   0.00415   0.00000   0.02001   0.01896   2.11839
    A6        2.07211  -0.01112   0.00000  -0.05826  -0.05937   2.01273
    A7        1.91063   0.01644   0.00000   0.06252   0.06252   1.97315
    A8        1.91063   0.00595   0.00000   0.03669   0.03616   1.94679
    A9        1.91063  -0.00966   0.00000  -0.06082  -0.06064   1.85000
   A10        1.91063   0.00588   0.00000   0.03673   0.03621   1.94684
   A11        1.91063  -0.00057   0.00000  -0.00873  -0.00856   1.90208
   A12        1.91063  -0.00148   0.00000   0.00141   0.00033   1.91096
   A13        1.91063  -0.00013   0.00000  -0.00528  -0.00509   1.90554
    D1       -2.97748  -0.00437   0.00000  -0.11915  -0.11998  -3.09746
    D2        0.00000  -0.00199   0.00000  -0.04099  -0.04016  -0.04016
    D3        0.16411  -0.00406   0.00000  -0.11127  -0.11210   0.05201
    D4        3.14159  -0.00168   0.00000  -0.03311  -0.03228   3.10931
    D5        2.69874  -0.00122   0.00000  -0.01259  -0.01088   2.68787
    D6       -0.60435   0.00282   0.00000   0.07427   0.07255  -0.53179
    D7        1.04720   0.00256   0.00000   0.01467   0.01564   1.06284
    D8        3.14159  -0.00041   0.00000  -0.01079  -0.01078   3.13081
    D9       -1.04720  -0.00288   0.00000  -0.03201  -0.03300  -1.08020
         Item               Value     Threshold  Converged?
 Maximum Force            0.040178     0.000450     NO 
 RMS     Force            0.011774     0.000300     NO 
 Maximum Displacement     0.121796     0.001800     NO 
 RMS     Displacement     0.059305     0.001200     NO 
 Predicted change in Energy=-6.946807D-03
 GradGradGradGradGradGradGradGradGradGradGradGradGradGradGradGradGradGrad

                          Input orientation:                          
 ---------------------------------------------------------------------
 Center     Atomic      Atomic             Coordinates (Angstroms)
 Number     Number       Type             X           Y           Z
 ---------------------------------------------------------------------
      1          6           0       -2.902317   -1.065134    0.286002
      2          1           0       -2.730376   -2.067561   -0.086292
      3          1           0       -3.589103   -0.413943   -0.238298
      4          6           0       -2.273901   -0.627521    1.369859
      5          1           0       -2.446180    0.355435    1.800455
      6          8           0       -1.420624   -1.443300    2.084032
      7          6           0       -0.421162   -0.714325    2.806267
      8          1           0       -0.869441   -0.036549    3.539778
      9          1           0        0.173684   -1.459831    3.330400
     10          1           0        0.226757   -0.146327    2.132878
 ---------------------------------------------------------------------
                    Distance matrix (angstroms):
                    1          2          3          4          5
     1  C    0.000000
     2  H    1.083063   0.000000
     3  H    1.081951   1.869485   0.000000
     4  C    1.327086   2.098204   2.088431   0.000000
     5  H    2.125945   3.084070   2.460635   1.086874   0.000000
     6  O    2.360368   2.610643   3.339925   1.379718   2.089888
     7  C    3.554002   3.940890   4.404027   2.345942   2.501348
     8  H    3.972106   4.553731   4.670422   2.651472   2.380126
     9  H    4.345794   4.525116   5.290374   3.244554   3.535479
    10  H    3.747834   4.166592   4.500543   2.658390   2.739866
                    6          7          8          9         10
     6  O    0.000000
     7  C    1.432464   0.000000
     8  H    2.098082   1.094703   0.000000
     9  H    2.023740   1.088273   1.776987   0.000000
    10  H    2.097234   1.093559   1.786916   1.778248   0.000000
 Stoichiometry    C3H6O
 Framework group  C1[X(C3H6O)]
 Deg. of freedom    24
 Full point group                 C1      NOp   1
 Largest Abelian subgroup         C1      NOp   1
 Largest concise Abelian subgroup C1      NOp   1
                         Standard orientation:                         
 ---------------------------------------------------------------------
 Center     Atomic      Atomic             Coordinates (Angstroms)
 Number     Number       Type             X           Y           Z
 ---------------------------------------------------------------------
      1          6           0        1.848733   -0.081292    0.115119
      2          1           0        2.035386   -1.137074    0.268453
      3          1           0        2.675249    0.615800    0.154509
      4          6           0        0.619121    0.363858   -0.110834
      5          1           0        0.392291    1.408117   -0.309239
      6          8           0       -0.451902   -0.500830   -0.204884
      7          6           0       -1.699900    0.112522    0.138995
      8          1           0       -1.933166    0.949811   -0.526519
      9          1           0       -2.457327   -0.659152    0.015863
     10          1           0       -1.704940    0.458609    1.176333
 ---------------------------------------------------------------------
 Rotational constants (GHZ):          35.8872488           4.5570403           4.2491390
 Standard basis: 6-311G(d) (5D, 7F)
 There are    94 symmetry adapted cartesian basis functions of A   symmetry.
 There are    90 symmetry adapted basis functions of A   symmetry.
    90 basis functions,   158 primitive gaussians,    94 cartesian basis functions
    16 alpha electrons       16 beta electrons
       nuclear repulsion energy       119.1787763376 Hartrees.
 NAtoms=   10 NActive=   10 NUniq=   10 SFac= 1.00D+00 NAtFMM=   60 NAOKFM=F Big=F
 Integral buffers will be    131072 words long.
 Raffenetti 2 integral format.
 Two-electron integral symmetry is turned on.
 One-electron integrals computed using PRISM.
 NBasis=    90 RedAO= T EigKep=  2.82D-03  NBF=    90
 NBsUse=    90 1.00D-06 EigRej= -1.00D+00 NBFU=    90
 Initial guess from the checkpoint file:  "/home/kimariyb/g16/scratch/Gau-150378.chk"
 B after Tr=     0.000000    0.000000    0.000000
         Rot=    0.999888   -0.014251    0.001485   -0.004368 Ang=  -1.72 deg.
 ExpMin= 1.03D-01 ExpMax= 8.59D+03 ExpMxC= 1.30D+03 IAcc=2 IRadAn=         4 AccDes= 0.00D+00
 Harris functional with IExCor=  402 and IRadAn=       4 diagonalized for initial guess.
 HarFok:  IExCor=  402 AccDes= 0.00D+00 IRadAn=         4 IDoV= 1 UseB2=F ITyADJ=14
 ICtDFT=  3500011 ScaDFX=  1.000000  1.000000  1.000000  1.000000
 FoFCou: FMM=F IPFlag=           0 FMFlag=      100000 FMFlg1=           0
         NFxFlg=           0 DoJE=T BraDBF=F KetDBF=T FulRan=T
         wScrn=  0.000000 ICntrl=       500 IOpCl=  0 I1Cent=   200000004 NGrid=           0
         NMat0=    1 NMatS0=      1 NMatT0=    0 NMatD0=    1 NMtDS0=    0 NMtDT0=    0
 Petite list used in FoFCou.
 Keep R1 ints in memory in canonical form, NReq=17558572.
 Requested convergence on RMS density matrix=1.00D-08 within 128 cycles.
 Requested convergence on MAX density matrix=1.00D-06.
 Requested convergence on             energy=1.00D-06.
 No special actions if energy rises.
 Integral accuracy reduced to 1.0D-05 until final iterations.
 Initial convergence to 1.0D-05 achieved.  Increase integral accuracy.
 SCF Done:  E(RB3LYP) =  -193.158169794     A.U. after   12 cycles
            NFock= 12  Conv=0.59D-08     -V/T= 2.0036
 Calling FoFJK, ICntrl=      2127 FMM=F ISym2X=0 I1Cent= 0 IOpClX= 0 NMat=1 NMatS=1 NMatT=0.
 ***** Axes restored to original set *****
 -------------------------------------------------------------------
 Center     Atomic                   Forces (Hartrees/Bohr)
 Number     Number              X              Y              Z
 -------------------------------------------------------------------
      1        6           0.000164914    0.002880672   -0.000622064
      2        1           0.000004412    0.000247080   -0.001331709
      3        1          -0.001729898   -0.001375130   -0.000053722
      4        6           0.004409483   -0.013273705    0.005341085
      5        1           0.001633906    0.002398898   -0.000430366
      6        8          -0.001448701    0.014864153   -0.001925404
      7        6          -0.002454380   -0.007053095   -0.000768233
      8        1          -0.001162468    0.000855121    0.000181325
      9        1           0.000545974    0.000029570    0.000627862
     10        1           0.000036758    0.000426437   -0.001018774
 -------------------------------------------------------------------
 Cartesian Forces:  Max     0.014864153 RMS     0.004224310

 GradGradGradGradGradGradGradGradGradGradGradGradGradGradGradGradGradGrad
 Berny optimization.
 Using GEDIIS/GDIIS optimizer.
 FormGI is forming the generalized inverse of G from B-inverse, IUseBI=4.
 Internal  Forces:  Max     0.009669041 RMS     0.002615954
 Search for a local minimum.
 Step number   2 out of a maximum of   41
 All quantities printed in internal units (Hartrees-Bohrs-Radians)
 Mixed Optimization -- RFO/linear search
 Update second derivatives using D2CorX and points    1    2
 DE= -7.45D-03 DEPred=-6.95D-03 R= 1.07D+00
 TightC=F SS=  1.41D+00  RLast= 2.70D-01 DXNew= 5.0454D-01 8.0872D-01
 Trust test= 1.07D+00 RLast= 2.70D-01 DXMaxT set to 5.05D-01
 ITU=  1  0
 Use linear search instead of GDIIS.
     Eigenvalues ---    0.01287   0.01295   0.02298   0.02639   0.02709
     Eigenvalues ---    0.10189   0.10596   0.15722   0.15994   0.16000
     Eigenvalues ---    0.16000   0.16000   0.16922   0.21259   0.23704
     Eigenvalues ---    0.35220   0.37230   0.37230   0.37230   0.37230
     Eigenvalues ---    0.37298   0.38889   0.42001   0.56226
 RFO step:  Lambda=-9.17617035D-04 EMin= 1.28666116D-02
 Quartic linear search produced a step of  0.15212.
 Iteration  1 RMS(Cart)=  0.03940140 RMS(Int)=  0.00078443
 Iteration  2 RMS(Cart)=  0.00114394 RMS(Int)=  0.00015246
 Iteration  3 RMS(Cart)=  0.00000041 RMS(Int)=  0.00015246
 Variable       Old X    -DE/DX   Delta X   Delta X   Delta X     New X
                                 (Linear)    (Quad)   (Total)
    R1        2.04669   0.00023   0.00376  -0.00173   0.00203   2.04872
    R2        2.04459   0.00030   0.00344  -0.00132   0.00212   2.04671
    R3        2.50783   0.00180  -0.00808   0.00894   0.00086   2.50869
    R4        2.05389   0.00174   0.00485   0.00222   0.00707   2.06096
    R5        2.60729  -0.00967  -0.01445  -0.01778  -0.03223   2.57506
    R6        2.70696  -0.00553   0.00071  -0.01595  -0.01524   2.69172
    R7        2.06869   0.00113   0.00710  -0.00113   0.00597   2.07466
    R8        2.05654   0.00058   0.00525  -0.00162   0.00363   2.06017
    R9        2.06653   0.00087   0.00677  -0.00171   0.00506   2.07159
    A1        2.08433  -0.00162  -0.00153  -0.01042  -0.01211   2.07222
    A2        2.10688   0.00049   0.00190   0.00220   0.00394   2.11081
    A3        2.09195   0.00114  -0.00037   0.00845   0.00792   2.09987
    A4        2.14925  -0.00158   0.00746  -0.01236  -0.00517   2.14409
    A5        2.11839   0.00377   0.00288   0.01800   0.02061   2.13899
    A6        2.01273  -0.00213  -0.00903  -0.00446  -0.01378   1.99896
    A7        1.97315   0.00628   0.00951   0.02236   0.03187   2.00502
    A8        1.94679  -0.00127   0.00550  -0.01431  -0.00893   1.93787
    A9        1.85000   0.00150  -0.00922   0.01967   0.01047   1.86047
   A10        1.94684  -0.00103   0.00551  -0.01251  -0.00711   1.93973
   A11        1.90208   0.00033  -0.00130   0.00537   0.00410   1.90618
   A12        1.91096   0.00025   0.00005  -0.00198  -0.00217   1.90880
   A13        1.90554   0.00031  -0.00077   0.00516   0.00441   1.90995
    D1       -3.09746  -0.00112  -0.01825  -0.02312  -0.04151  -3.13897
    D2       -0.04016  -0.00036  -0.00611  -0.00559  -0.01156  -0.05173
    D3        0.05201  -0.00192  -0.01705  -0.05780  -0.07499  -0.02297
    D4        3.10931  -0.00115  -0.00491  -0.04027  -0.04504   3.06427
    D5        2.68787   0.00051  -0.00165   0.05417   0.05280   2.74067
    D6       -0.53179   0.00122   0.01104   0.06993   0.08069  -0.45111
    D7        1.06284  -0.00094   0.00238  -0.03189  -0.02930   1.03355
    D8        3.13081  -0.00033  -0.00164  -0.02127  -0.02291   3.10791
    D9       -1.08020   0.00040  -0.00502  -0.00990  -0.01513  -1.09533
         Item               Value     Threshold  Converged?
 Maximum Force            0.009669     0.000450     NO 
 RMS     Force            0.002616     0.000300     NO 
 Maximum Displacement     0.094039     0.001800     NO 
 RMS     Displacement     0.039237     0.001200     NO 
 Predicted change in Energy=-6.299248D-04
 GradGradGradGradGradGradGradGradGradGradGradGradGradGradGradGradGradGrad

                          Input orientation:                          
 ---------------------------------------------------------------------
 Center     Atomic      Atomic             Coordinates (Angstroms)
 Number     Number       Type             X           Y           Z
 ---------------------------------------------------------------------
      1          6           0       -2.910873   -1.067617    0.283342
      2          1           0       -2.748059   -2.067845   -0.101868
      3          1           0       -3.638810   -0.432998   -0.206978
      4          6           0       -2.255127   -0.632861    1.352616
      5          1           0       -2.396417    0.365740    1.767672
      6          8           0       -1.395847   -1.421887    2.056835
      7          6           0       -0.419392   -0.715647    2.816222
      8          1           0       -0.895328   -0.047430    3.545790
      9          1           0        0.166024   -1.467102    3.346438
     10          1           0        0.241166   -0.131412    2.165014
 ---------------------------------------------------------------------
                    Distance matrix (angstroms):
                    1          2          3          4          5
     1  C    0.000000
     2  H    1.084136   0.000000
     3  H    1.083073   1.864728   0.000000
     4  C    1.327541   2.101829   2.094483   0.000000
     5  H    2.126597   3.088878   2.465921   1.090614   0.000000
     6  O    2.359256   2.627877   3.336709   1.362662   2.068904
     7  C    3.570273   3.970690   4.425413   2.349238   2.485454
     8  H    3.968220   4.562904   4.664614   2.646090   2.363405
     9  H    4.359983   4.554513   5.307815   3.245498   3.523907
    10  H    3.788472   4.221847   4.557577   2.672624   2.713279
                    6          7          8          9         10
     6  O    0.000000
     7  C    1.424398   0.000000
     8  H    2.087256   1.097860   0.000000
     9  H    2.025973   1.090195   1.783725   0.000000
    10  H    2.087305   1.096238   1.790311   1.784791   0.000000
 Stoichiometry    C3H6O
 Framework group  C1[X(C3H6O)]
 Deg. of freedom    24
 Full point group                 C1      NOp   1
 Largest Abelian subgroup         C1      NOp   1
 Largest concise Abelian subgroup C1      NOp   1
                         Standard orientation:                         
 ---------------------------------------------------------------------
 Center     Atomic      Atomic             Coordinates (Angstroms)
 Number     Number       Type             X           Y           Z
 ---------------------------------------------------------------------
      1          6           0        1.856769   -0.079300    0.102118
      2          1           0        2.061596   -1.134156    0.245908
      3          1           0        2.687024    0.616177    0.096291
      4          6           0        0.617484    0.355028   -0.092553
      5          1           0        0.376444    1.408005   -0.242813
      6          8           0       -0.449369   -0.487969   -0.182144
      7          6           0       -1.708699    0.104977    0.120202
      8          1           0       -1.920342    0.945529   -0.553576
      9          1           0       -2.461069   -0.670321   -0.026015
     10          1           0       -1.742023    0.454292    1.158762
 ---------------------------------------------------------------------
 Rotational constants (GHZ):          37.6402587           4.5336082           4.2279001
 Standard basis: 6-311G(d) (5D, 7F)
 There are    94 symmetry adapted cartesian basis functions of A   symmetry.
 There are    90 symmetry adapted basis functions of A   symmetry.
    90 basis functions,   158 primitive gaussians,    94 cartesian basis functions
    16 alpha electrons       16 beta electrons
       nuclear repulsion energy       119.4394023344 Hartrees.
 NAtoms=   10 NActive=   10 NUniq=   10 SFac= 1.00D+00 NAtFMM=   60 NAOKFM=F Big=F
 Integral buffers will be    131072 words long.
 Raffenetti 2 integral format.
 Two-electron integral symmetry is turned on.
 One-electron integrals computed using PRISM.
 NBasis=    90 RedAO= T EigKep=  2.76D-03  NBF=    90
 NBsUse=    90 1.00D-06 EigRej= -1.00D+00 NBFU=    90
 Initial guess from the checkpoint file:  "/home/kimariyb/g16/scratch/Gau-150378.chk"
 B after Tr=    -0.000000   -0.000000    0.000000
         Rot=    0.999997   -0.002017    0.000615   -0.000946 Ang=  -0.26 deg.
 ExpMin= 1.03D-01 ExpMax= 8.59D+03 ExpMxC= 1.30D+03 IAcc=2 IRadAn=         4 AccDes= 0.00D+00
 Harris functional with IExCor=  402 and IRadAn=       4 diagonalized for initial guess.
 HarFok:  IExCor=  402 AccDes= 0.00D+00 IRadAn=         4 IDoV= 1 UseB2=F ITyADJ=14
 ICtDFT=  3500011 ScaDFX=  1.000000  1.000000  1.000000  1.000000
 FoFCou: FMM=F IPFlag=           0 FMFlag=      100000 FMFlg1=           0
         NFxFlg=           0 DoJE=T BraDBF=F KetDBF=T FulRan=T
         wScrn=  0.000000 ICntrl=       500 IOpCl=  0 I1Cent=   200000004 NGrid=           0
         NMat0=    1 NMatS0=      1 NMatT0=    0 NMatD0=    1 NMtDS0=    0 NMtDT0=    0
 Petite list used in FoFCou.
 Keep R1 ints in memory in canonical form, NReq=17558572.
 Requested convergence on RMS density matrix=1.00D-08 within 128 cycles.
 Requested convergence on MAX density matrix=1.00D-06.
 Requested convergence on             energy=1.00D-06.
 No special actions if energy rises.
 Integral accuracy reduced to 1.0D-05 until final iterations.
 Initial convergence to 1.0D-05 achieved.  Increase integral accuracy.
 SCF Done:  E(RB3LYP) =  -193.158841808     A.U. after   11 cycles
            NFock= 11  Conv=0.48D-08     -V/T= 2.0036
 Calling FoFJK, ICntrl=      2127 FMM=F ISym2X=0 I1Cent= 0 IOpClX= 0 NMat=1 NMatS=1 NMatT=0.
 ***** Axes restored to original set *****
 -------------------------------------------------------------------
 Center     Atomic                   Forces (Hartrees/Bohr)
 Number     Number              X              Y              Z
 -------------------------------------------------------------------
      1        6          -0.001240030    0.000047492   -0.001358066
      2        1          -0.000380411    0.000291748   -0.000095913
      3        1           0.000594303   -0.000417826    0.000089998
      4        6           0.001122842   -0.000751588    0.003781170
      5        1          -0.000539766    0.000516375   -0.001298570
      6        8           0.002050125    0.001143086   -0.000602645
      7        6          -0.001590732   -0.001052976   -0.000393777
      8        1           0.000614404   -0.000162197   -0.000395165
      9        1          -0.000634968    0.000703470   -0.000435584
     10        1           0.000004232   -0.000317583    0.000708552
 -------------------------------------------------------------------
 Cartesian Forces:  Max     0.003781170 RMS     0.001071512

 GradGradGradGradGradGradGradGradGradGradGradGradGradGradGradGradGradGrad
 Berny optimization.
 Using GEDIIS/GDIIS optimizer.
 FormGI is forming the generalized inverse of G from B-inverse, IUseBI=4.
 Internal  Forces:  Max     0.001787715 RMS     0.000719674
 Search for a local minimum.
 Step number   3 out of a maximum of   41
 All quantities printed in internal units (Hartrees-Bohrs-Radians)
 Mixed Optimization -- En-DIIS/RFO-DIIS
 Update second derivatives using D2CorX and points    1    2    3
 DE= -6.72D-04 DEPred=-6.30D-04 R= 1.07D+00
 TightC=F SS=  1.41D+00  RLast= 1.55D-01 DXNew= 8.4853D-01 4.6462D-01
 Trust test= 1.07D+00 RLast= 1.55D-01 DXMaxT set to 5.05D-01
 ITU=  1  1  0
 Use linear search instead of GDIIS.
     Eigenvalues ---    0.01114   0.01296   0.02239   0.02701   0.02915
     Eigenvalues ---    0.10338   0.10556   0.15502   0.16000   0.16000
     Eigenvalues ---    0.16000   0.16699   0.16888   0.21365   0.23398
     Eigenvalues ---    0.35305   0.37230   0.37230   0.37230   0.37249
     Eigenvalues ---    0.37637   0.38511   0.42314   0.56582
 RFO step:  Lambda=-1.51302466D-04 EMin= 1.11448960D-02
 Quartic linear search produced a step of  0.11588.
 Iteration  1 RMS(Cart)=  0.02406795 RMS(Int)=  0.00033358
 Iteration  2 RMS(Cart)=  0.00063412 RMS(Int)=  0.00004091
 Iteration  3 RMS(Cart)=  0.00000029 RMS(Int)=  0.00004091
 Variable       Old X    -DE/DX   Delta X   Delta X   Delta X     New X
                                 (Linear)    (Quad)   (Total)
    R1        2.04872  -0.00029   0.00023  -0.00047  -0.00023   2.04849
    R2        2.04671  -0.00069   0.00025  -0.00166  -0.00141   2.04530
    R3        2.50869   0.00163   0.00010   0.00236   0.00246   2.51115
    R4        2.06096   0.00005   0.00082   0.00057   0.00138   2.06235
    R5        2.57506  -0.00048  -0.00373  -0.00233  -0.00607   2.56899
    R6        2.69172  -0.00179  -0.00177  -0.00440  -0.00616   2.68556
    R7        2.07466  -0.00063   0.00069  -0.00114  -0.00045   2.07421
    R8        2.06017  -0.00104   0.00042  -0.00251  -0.00209   2.05808
    R9        2.07159  -0.00059   0.00059  -0.00104  -0.00046   2.07114
    A1        2.07222  -0.00035  -0.00140  -0.00227  -0.00369   2.06853
    A2        2.11081   0.00042   0.00046   0.00302   0.00346   2.11427
    A3        2.09987  -0.00007   0.00092  -0.00064   0.00026   2.10013
    A4        2.14409  -0.00155  -0.00060  -0.00917  -0.00987   2.13422
    A5        2.13899   0.00022   0.00239   0.00117   0.00346   2.14245
    A6        1.99896   0.00136  -0.00160   0.00895   0.00725   2.00621
    A7        2.00502   0.00079   0.00369   0.00394   0.00763   2.01265
    A8        1.93787   0.00050  -0.00103   0.00442   0.00338   1.94125
    A9        1.86047  -0.00029   0.00121  -0.00363  -0.00241   1.85806
   A10        1.93973   0.00063  -0.00082   0.00525   0.00442   1.94414
   A11        1.90618  -0.00019   0.00047  -0.00190  -0.00142   1.90476
   A12        1.90880  -0.00038  -0.00025  -0.00181  -0.00207   1.90672
   A13        1.90995  -0.00029   0.00051  -0.00256  -0.00205   1.90790
    D1       -3.13897  -0.00014  -0.00481  -0.00811  -0.01288   3.13133
    D2       -0.05173   0.00035  -0.00134   0.01482   0.01344  -0.03829
    D3       -0.02297  -0.00005  -0.00869  -0.00322  -0.01187  -0.03485
    D4        3.06427   0.00044  -0.00522   0.01970   0.01445   3.07872
    D5        2.74067   0.00039   0.00612   0.03616   0.04220   2.78287
    D6       -0.45111   0.00076   0.00935   0.05683   0.06626  -0.38485
    D7        1.03355  -0.00015  -0.00339  -0.02138  -0.02476   1.00878
    D8        3.10791  -0.00028  -0.00265  -0.02341  -0.02607   3.08184
    D9       -1.09533  -0.00045  -0.00175  -0.02580  -0.02757  -1.12289
         Item               Value     Threshold  Converged?
 Maximum Force            0.001788     0.000450     NO 
 RMS     Force            0.000720     0.000300     NO 
 Maximum Displacement     0.053778     0.001800     NO 
 RMS     Displacement     0.024083     0.001200     NO 
 Predicted change in Energy=-8.488686D-05
 GradGradGradGradGradGradGradGradGradGradGradGradGradGradGradGradGradGrad

                          Input orientation:                          
 ---------------------------------------------------------------------
 Center     Atomic      Atomic             Coordinates (Angstroms)
 Number     Number       Type             X           Y           Z
 ---------------------------------------------------------------------
      1          6           0       -2.920544   -1.071795    0.286488
      2          1           0       -2.771024   -2.073656   -0.099522
      3          1           0       -3.650934   -0.435614   -0.196458
      4          6           0       -2.246707   -0.635771    1.345570
      5          1           0       -2.375625    0.372027    1.744017
      6          8           0       -1.371314   -1.416444    2.032840
      7          6           0       -0.418605   -0.714002    2.819319
      8          1           0       -0.911412   -0.060442    3.550603
      9          1           0        0.161139   -1.468796    3.348753
     10          1           0        0.252364   -0.114564    2.193472
 ---------------------------------------------------------------------
                    Distance matrix (angstroms):
                    1          2          3          4          5
     1  C    0.000000
     2  H    1.084014   0.000000
     3  H    1.082327   1.861939   0.000000
     4  C    1.328844   2.104926   2.095177   0.000000
     5  H    2.122722   3.088097   2.458484   1.091346   0.000000
     6  O    2.359797   2.634024   3.335935   1.359450   2.071398
     7  C    3.578120   3.987751   4.429487   2.349471   2.483074
     8  H    3.964075   4.564493   4.656844   2.641247   2.365312
     9  H    4.362551   4.566622   5.307342   3.241048   3.521218
    10  H    3.823640   4.270449   4.588090   2.689973   2.710185
                    6          7          8          9         10
     6  O    0.000000
     7  C    1.421136   0.000000
     8  H    2.086590   1.097623   0.000000
     9  H    2.020589   1.089090   1.781733   0.000000
    10  H    2.087349   1.095997   1.788605   1.782397   0.000000
 Stoichiometry    C3H6O
 Framework group  C1[X(C3H6O)]
 Deg. of freedom    24
 Full point group                 C1      NOp   1
 Largest Abelian subgroup         C1      NOp   1
 Largest concise Abelian subgroup C1      NOp   1
                         Standard orientation:                         
 ---------------------------------------------------------------------
 Center     Atomic      Atomic             Coordinates (Angstroms)
 Number     Number       Type             X           Y           Z
 ---------------------------------------------------------------------
      1          6           0        1.861321   -0.077512    0.090958
      2          1           0        2.077206   -1.131974    0.219764
      3          1           0        2.687059    0.622177    0.086151
      4          6           0        0.616423    0.352475   -0.085582
      5          1           0        0.376898    1.410188   -0.207681
      6          8           0       -0.448777   -0.488930   -0.159686
      7          6           0       -1.712102    0.105130    0.106268
      8          1           0       -1.911136    0.939227   -0.578891
      9          1           0       -2.458117   -0.672442   -0.051722
     10          1           0       -1.775547    0.463704    1.140004
 ---------------------------------------------------------------------
 Rotational constants (GHZ):          38.3379364           4.5247082           4.2123400
 Standard basis: 6-311G(d) (5D, 7F)
 There are    94 symmetry adapted cartesian basis functions of A   symmetry.
 There are    90 symmetry adapted basis functions of A   symmetry.
    90 basis functions,   158 primitive gaussians,    94 cartesian basis functions
    16 alpha electrons       16 beta electrons
       nuclear repulsion energy       119.4858350408 Hartrees.
 NAtoms=   10 NActive=   10 NUniq=   10 SFac= 1.00D+00 NAtFMM=   60 NAOKFM=F Big=F
 Integral buffers will be    131072 words long.
 Raffenetti 2 integral format.
 Two-electron integral symmetry is turned on.
 One-electron integrals computed using PRISM.
 NBasis=    90 RedAO= T EigKep=  2.75D-03  NBF=    90
 NBsUse=    90 1.00D-06 EigRej= -1.00D+00 NBFU=    90
 Initial guess from the checkpoint file:  "/home/kimariyb/g16/scratch/Gau-150378.chk"
 B after Tr=    -0.000000    0.000000    0.000000
         Rot=    0.999998    0.001860    0.000585   -0.000463 Ang=   0.23 deg.
 ExpMin= 1.03D-01 ExpMax= 8.59D+03 ExpMxC= 1.30D+03 IAcc=2 IRadAn=         4 AccDes= 0.00D+00
 Harris functional with IExCor=  402 and IRadAn=       4 diagonalized for initial guess.
 HarFok:  IExCor=  402 AccDes= 0.00D+00 IRadAn=         4 IDoV= 1 UseB2=F ITyADJ=14
 ICtDFT=  3500011 ScaDFX=  1.000000  1.000000  1.000000  1.000000
 FoFCou: FMM=F IPFlag=           0 FMFlag=      100000 FMFlg1=           0
         NFxFlg=           0 DoJE=T BraDBF=F KetDBF=T FulRan=T
         wScrn=  0.000000 ICntrl=       500 IOpCl=  0 I1Cent=   200000004 NGrid=           0
         NMat0=    1 NMatS0=      1 NMatT0=    0 NMatD0=    1 NMtDS0=    0 NMtDT0=    0
 Petite list used in FoFCou.
 Keep R1 ints in memory in canonical form, NReq=17558572.
 Requested convergence on RMS density matrix=1.00D-08 within 128 cycles.
 Requested convergence on MAX density matrix=1.00D-06.
 Requested convergence on             energy=1.00D-06.
 No special actions if energy rises.
 Integral accuracy reduced to 1.0D-05 until final iterations.
 Initial convergence to 1.0D-05 achieved.  Increase integral accuracy.
 SCF Done:  E(RB3LYP) =  -193.158953648     A.U. after   10 cycles
            NFock= 10  Conv=0.31D-08     -V/T= 2.0035
 Calling FoFJK, ICntrl=      2127 FMM=F ISym2X=0 I1Cent= 0 IOpClX= 0 NMat=1 NMatS=1 NMatT=0.
 ***** Axes restored to original set *****
 -------------------------------------------------------------------
 Center     Atomic                   Forces (Hartrees/Bohr)
 Number     Number              X              Y              Z
 -------------------------------------------------------------------
      1        6          -0.000651294   -0.000481017   -0.000335673
      2        1          -0.000191949    0.000117970    0.000102440
      3        1           0.000258729    0.000020112    0.000126133
      4        6           0.000369076    0.001514668    0.000444082
      5        1          -0.000443187   -0.000378337   -0.000424151
      6        8           0.001175600   -0.000528096   -0.000225642
      7        6          -0.000677240   -0.000190495    0.000494202
      8        1           0.000310955   -0.000179477   -0.000349443
      9        1          -0.000047618    0.000325397    0.000028047
     10        1          -0.000103072   -0.000220726    0.000140005
 -------------------------------------------------------------------
 Cartesian Forces:  Max     0.001514668 RMS     0.000481309

 GradGradGradGradGradGradGradGradGradGradGradGradGradGradGradGradGradGrad
 Berny optimization.
 Using GEDIIS/GDIIS optimizer.
 FormGI is forming the generalized inverse of G from B-inverse, IUseBI=4.
 Internal  Forces:  Max     0.000923710 RMS     0.000337607
 Search for a local minimum.
 Step number   4 out of a maximum of   41
 All quantities printed in internal units (Hartrees-Bohrs-Radians)
 Mixed Optimization -- En-DIIS/RFO-DIIS
 Swapping is turned off.
 Update second derivatives using D2CorX and points    1    2    3    4
 DE= -1.12D-04 DEPred=-8.49D-05 R= 1.32D+00
 TightC=F SS=  1.41D+00  RLast= 9.65D-02 DXNew= 8.4853D-01 2.8935D-01
 Trust test= 1.32D+00 RLast= 9.65D-02 DXMaxT set to 5.05D-01
 ITU=  1  1  1  0
     Eigenvalues ---    0.00556   0.01301   0.02666   0.02830   0.03021
     Eigenvalues ---    0.10389   0.10560   0.15317   0.16000   0.16000
     Eigenvalues ---    0.16062   0.16328   0.17492   0.22099   0.23810
     Eigenvalues ---    0.37115   0.37228   0.37230   0.37230   0.37324
     Eigenvalues ---    0.37575   0.39633   0.41295   0.55633
 En-DIIS/RFO-DIIS/Sim-DIIS IScMMF=       -3 using points:     4    3
 RFO step:  Lambda=-1.08385159D-04.
 DidBck=F Rises=F RFO-DIIS coefs:    2.21788   -1.21788
 Iteration  1 RMS(Cart)=  0.03992555 RMS(Int)=  0.00075916
 Iteration  2 RMS(Cart)=  0.00129283 RMS(Int)=  0.00004366
 Iteration  3 RMS(Cart)=  0.00000082 RMS(Int)=  0.00004365
 Variable       Old X    -DE/DX   Delta X   Delta X   Delta X     New X
                                 (Linear)    (Quad)   (Total)
    R1        2.04849  -0.00017  -0.00028  -0.00000  -0.00028   2.04821
    R2        2.04530  -0.00022  -0.00172   0.00070  -0.00102   2.04428
    R3        2.51115   0.00049   0.00300  -0.00128   0.00172   2.51288
    R4        2.06235  -0.00045   0.00169  -0.00191  -0.00023   2.06212
    R5        2.56899   0.00092  -0.00739   0.00453  -0.00286   2.56612
    R6        2.68556  -0.00030  -0.00751   0.00278  -0.00473   2.68083
    R7        2.07421  -0.00048  -0.00055  -0.00046  -0.00101   2.07320
    R8        2.05808  -0.00024  -0.00254   0.00142  -0.00113   2.05696
    R9        2.07114  -0.00026  -0.00055   0.00030  -0.00026   2.07088
    A1        2.06853   0.00005  -0.00450   0.00234  -0.00216   2.06637
    A2        2.11427   0.00021   0.00421  -0.00037   0.00384   2.11812
    A3        2.10013  -0.00025   0.00031  -0.00207  -0.00176   2.09837
    A4        2.13422  -0.00049  -0.01202   0.00329  -0.00885   2.12537
    A5        2.14245  -0.00012   0.00421  -0.00198   0.00212   2.14456
    A6        2.00621   0.00060   0.00884  -0.00219   0.00653   2.01274
    A7        2.01265  -0.00002   0.00929  -0.00303   0.00626   2.01891
    A8        1.94125   0.00012   0.00412  -0.00143   0.00268   1.94393
    A9        1.85806   0.00033  -0.00294   0.00459   0.00165   1.85971
   A10        1.94414  -0.00011   0.00538  -0.00441   0.00096   1.94510
   A11        1.90476  -0.00013  -0.00173   0.00038  -0.00135   1.90341
   A12        1.90672  -0.00008  -0.00252   0.00051  -0.00202   1.90470
   A13        1.90790  -0.00013  -0.00250   0.00053  -0.00197   1.90593
    D1        3.13133   0.00033  -0.01569   0.02355   0.00789   3.13923
    D2       -0.03829  -0.00005   0.01637  -0.01653  -0.00020  -0.03849
    D3       -0.03485   0.00029  -0.01446   0.01887   0.00445  -0.03039
    D4        3.07872  -0.00009   0.01760  -0.02120  -0.00364   3.07508
    D5        2.78287   0.00065   0.05140   0.03435   0.08567   2.86855
    D6       -0.38485   0.00029   0.08069  -0.00293   0.07784  -0.30701
    D7        1.00878  -0.00024  -0.03016  -0.00215  -0.03230   0.97649
    D8        3.08184  -0.00012  -0.03175   0.00031  -0.03144   3.05040
    D9       -1.12289  -0.00014  -0.03357   0.00131  -0.03227  -1.15517
         Item               Value     Threshold  Converged?
 Maximum Force            0.000924     0.000450     NO 
 RMS     Force            0.000338     0.000300     NO 
 Maximum Displacement     0.084320     0.001800     NO 
 RMS     Displacement     0.039877     0.001200     NO 
 Predicted change in Energy=-5.509559D-05
 GradGradGradGradGradGradGradGradGradGradGradGradGradGradGradGradGradGrad

                          Input orientation:                          
 ---------------------------------------------------------------------
 Center     Atomic      Atomic             Coordinates (Angstroms)
 Number     Number       Type             X           Y           Z
 ---------------------------------------------------------------------
      1          6           0       -2.933702   -1.076875    0.289991
      2          1           0       -2.806770   -2.083903   -0.090200
      3          1           0       -3.675835   -0.441408   -0.174425
      4          6           0       -2.222913   -0.632131    1.322093
      5          1           0       -2.343632    0.381043    1.708980
      6          8           0       -1.332414   -1.407604    1.992646
      7          6           0       -0.417806   -0.713306    2.825690
      8          1           0       -0.940805   -0.083198    3.555787
      9          1           0        0.155293   -1.471392    3.356428
     10          1           0        0.265921   -0.090285    2.238092
 ---------------------------------------------------------------------
                    Distance matrix (angstroms):
                    1          2          3          4          5
     1  C    0.000000
     2  H    1.083864   0.000000
     3  H    1.081786   1.860150   0.000000
     4  C    1.329757   2.107867   2.094499   0.000000
     5  H    2.118310   3.086666   2.449164   1.091227   0.000000
     6  O    2.360622   2.639953   3.334869   1.357935   2.074195
     7  C    3.590499   4.010997   4.437271   2.350703   2.480615
     8  H    3.952778   4.558274   4.639309   2.633347   2.365193
     9  H    4.370420   4.585655   5.310869   3.240176   3.519975
    10  H    3.873764   4.340148   4.634756   2.706833   2.704048
                    6          7          8          9         10
     6  O    0.000000
     7  C    1.418633   0.000000
     8  H    2.085862   1.097090   0.000000
     9  H    2.019219   1.088494   1.779960   0.000000
    10  H    2.085725   1.095860   1.786773   1.780553   0.000000
 Stoichiometry    C3H6O
 Framework group  C1[X(C3H6O)]
 Deg. of freedom    24
 Full point group                 C1      NOp   1
 Largest Abelian subgroup         C1      NOp   1
 Largest concise Abelian subgroup C1      NOp   1
                         Standard orientation:                         
 ---------------------------------------------------------------------
 Center     Atomic      Atomic             Coordinates (Angstroms)
 Number     Number       Type             X           Y           Z
 ---------------------------------------------------------------------
      1          6           0        1.867921   -0.075496    0.070541
      2          1           0        2.096886   -1.130026    0.172054
      3          1           0        2.688117    0.629657    0.053224
      4          6           0        0.615442    0.351042   -0.062185
      5          1           0        0.377045    1.411157   -0.162677
      6          8           0       -0.447595   -0.491666   -0.123692
      7          6           0       -1.717998    0.105496    0.081234
      8          1           0       -1.891816    0.927774   -0.623927
      9          1           0       -2.458357   -0.673472   -0.091669
     10          1           0       -1.823309    0.481992    1.104987
 ---------------------------------------------------------------------
 Rotational constants (GHZ):          39.3063534           4.5106617           4.1872756
 Standard basis: 6-311G(d) (5D, 7F)
 There are    94 symmetry adapted cartesian basis functions of A   symmetry.
 There are    90 symmetry adapted basis functions of A   symmetry.
    90 basis functions,   158 primitive gaussians,    94 cartesian basis functions
    16 alpha electrons       16 beta electrons
       nuclear repulsion energy       119.4884415905 Hartrees.
 NAtoms=   10 NActive=   10 NUniq=   10 SFac= 1.00D+00 NAtFMM=   60 NAOKFM=F Big=F
 Integral buffers will be    131072 words long.
 Raffenetti 2 integral format.
 Two-electron integral symmetry is turned on.
 One-electron integrals computed using PRISM.
 NBasis=    90 RedAO= T EigKep=  2.70D-03  NBF=    90
 NBsUse=    90 1.00D-06 EigRej= -1.00D+00 NBFU=    90
 Initial guess from the checkpoint file:  "/home/kimariyb/g16/scratch/Gau-150378.chk"
 B after Tr=    -0.000000   -0.000000   -0.000000
         Rot=    0.999994    0.003327    0.000904   -0.000523 Ang=   0.40 deg.
 ExpMin= 1.03D-01 ExpMax= 8.59D+03 ExpMxC= 1.30D+03 IAcc=2 IRadAn=         4 AccDes= 0.00D+00
 Harris functional with IExCor=  402 and IRadAn=       4 diagonalized for initial guess.
 HarFok:  IExCor=  402 AccDes= 0.00D+00 IRadAn=         4 IDoV= 1 UseB2=F ITyADJ=14
 ICtDFT=  3500011 ScaDFX=  1.000000  1.000000  1.000000  1.000000
 FoFCou: FMM=F IPFlag=           0 FMFlag=      100000 FMFlg1=           0
         NFxFlg=           0 DoJE=T BraDBF=F KetDBF=T FulRan=T
         wScrn=  0.000000 ICntrl=       500 IOpCl=  0 I1Cent=   200000004 NGrid=           0
         NMat0=    1 NMatS0=      1 NMatT0=    0 NMatD0=    1 NMtDS0=    0 NMtDT0=    0
 Petite list used in FoFCou.
 Keep R1 ints in memory in canonical form, NReq=17558572.
 Requested convergence on RMS density matrix=1.00D-08 within 128 cycles.
 Requested convergence on MAX density matrix=1.00D-06.
 Requested convergence on             energy=1.00D-06.
 No special actions if energy rises.
 Integral accuracy reduced to 1.0D-05 until final iterations.
 Initial convergence to 1.0D-05 achieved.  Increase integral accuracy.
 SCF Done:  E(RB3LYP) =  -193.159012309     A.U. after   10 cycles
            NFock= 10  Conv=0.68D-08     -V/T= 2.0035
 Calling FoFJK, ICntrl=      2127 FMM=F ISym2X=0 I1Cent= 0 IOpClX= 0 NMat=1 NMatS=1 NMatT=0.
 ***** Axes restored to original set *****
 -------------------------------------------------------------------
 Center     Atomic                   Forces (Hartrees/Bohr)
 Number     Number              X              Y              Z
 -------------------------------------------------------------------
      1        6          -0.000032657   -0.000703516    0.000175390
      2        1           0.000015182   -0.000001854    0.000209364
      3        1           0.000310270    0.000410194   -0.000203544
      4        6          -0.001614206    0.001590454   -0.000305368
      5        1           0.000287469   -0.000510104    0.000020279
      6        8           0.000628452   -0.001285001   -0.000486532
      7        6           0.000296638    0.000835728    0.000709505
      8        1           0.000001548   -0.000174526   -0.000154099
      9        1           0.000126091   -0.000090673    0.000131045
     10        1          -0.000018788   -0.000070701   -0.000096039
 -------------------------------------------------------------------
 Cartesian Forces:  Max     0.001614206 RMS     0.000581128

 GradGradGradGradGradGradGradGradGradGradGradGradGradGradGradGradGradGrad
 Berny optimization.
 Using GEDIIS/GDIIS optimizer.
 FormGI is forming the generalized inverse of G from B-inverse, IUseBI=4.
 Internal  Forces:  Max     0.001177682 RMS     0.000358411
 Search for a local minimum.
 Step number   5 out of a maximum of   41
 All quantities printed in internal units (Hartrees-Bohrs-Radians)
 Mixed Optimization -- En-DIIS/RFO-DIIS
 Swapping is turned off.
 Update second derivatives using D2CorX and points    1    2    3    4    5
 DE= -5.87D-05 DEPred=-5.51D-05 R= 1.06D+00
 TightC=F SS=  1.41D+00  RLast= 1.30D-01 DXNew= 8.4853D-01 3.8898D-01
 Trust test= 1.06D+00 RLast= 1.30D-01 DXMaxT set to 5.05D-01
 ITU=  1  1  1  1  0
     Eigenvalues ---    0.00375   0.01308   0.02650   0.02775   0.03489
     Eigenvalues ---    0.10396   0.10545   0.15810   0.15896   0.16000
     Eigenvalues ---    0.16041   0.16977   0.18098   0.21890   0.23743
     Eigenvalues ---    0.36131   0.37200   0.37230   0.37232   0.37267
     Eigenvalues ---    0.37636   0.39516   0.43155   0.58513
 En-DIIS/RFO-DIIS/Sim-DIIS IScMMF=       -3 using points:     5    4    3
 RFO step:  Lambda=-3.60248570D-05.
 DidBck=F Rises=F RFO-DIIS coefs:    1.06248    0.30431   -0.36679
 Iteration  1 RMS(Cart)=  0.01260193 RMS(Int)=  0.00008545
 Iteration  2 RMS(Cart)=  0.00015058 RMS(Int)=  0.00001617
 Iteration  3 RMS(Cart)=  0.00000001 RMS(Int)=  0.00001617
 Variable       Old X    -DE/DX   Delta X   Delta X   Delta X     New X
                                 (Linear)    (Quad)   (Total)
    R1        2.04821  -0.00007  -0.00010  -0.00025  -0.00035   2.04785
    R2        2.04428   0.00012  -0.00058   0.00043  -0.00015   2.04413
    R3        2.51288  -0.00020   0.00101  -0.00054   0.00047   2.51334
    R4        2.06212  -0.00050   0.00049  -0.00170  -0.00120   2.06092
    R5        2.56612   0.00118  -0.00241   0.00444   0.00203   2.56816
    R6        2.68083   0.00085  -0.00256   0.00296   0.00040   2.68123
    R7        2.07320  -0.00020  -0.00023  -0.00068  -0.00091   2.07229
    R8        2.05696   0.00019  -0.00084   0.00073  -0.00011   2.05685
    R9        2.07088  -0.00000  -0.00018  -0.00016  -0.00035   2.07053
    A1        2.06637   0.00027  -0.00149   0.00232   0.00082   2.06719
    A2        2.11812  -0.00005   0.00151  -0.00089   0.00061   2.11873
    A3        2.09837  -0.00021  -0.00002  -0.00125  -0.00128   2.09710
    A4        2.12537   0.00049  -0.00417   0.00398  -0.00022   2.12515
    A5        2.14456  -0.00034   0.00140  -0.00208  -0.00070   2.14387
    A6        2.01274  -0.00013   0.00307  -0.00194   0.00111   2.01384
    A7        2.01891  -0.00058   0.00319  -0.00384  -0.00066   2.01825
    A8        1.94393  -0.00015   0.00141  -0.00164  -0.00023   1.94369
    A9        1.85971   0.00014  -0.00078   0.00210   0.00132   1.86103
   A10        1.94510  -0.00015   0.00168  -0.00231  -0.00063   1.94447
   A11        1.90341   0.00001  -0.00060   0.00039  -0.00021   1.90320
   A12        1.90470   0.00014  -0.00089   0.00101   0.00012   1.90482
   A13        1.90593   0.00001  -0.00088   0.00053  -0.00035   1.90559
    D1        3.13923  -0.00004  -0.00423   0.00418  -0.00003   3.13920
    D2       -0.03849   0.00026   0.00492   0.00263   0.00752  -0.03096
    D3       -0.03039   0.00028  -0.00408   0.01160   0.00754  -0.02285
    D4        3.07508   0.00057   0.00507   0.01004   0.01509   3.09017
    D5        2.86855   0.00002   0.02083   0.00310   0.02388   2.89243
    D6       -0.30701   0.00031   0.02916   0.00175   0.03096  -0.27605
    D7        0.97649  -0.00003  -0.01110   0.00266  -0.00843   0.96805
    D8        3.05040  -0.00002  -0.01153   0.00351  -0.00801   3.04239
    D9       -1.15517   0.00000  -0.01213   0.00416  -0.00798  -1.16314
         Item               Value     Threshold  Converged?
 Maximum Force            0.001178     0.000450     NO 
 RMS     Force            0.000358     0.000300     NO 
 Maximum Displacement     0.025724     0.001800     NO 
 RMS     Displacement     0.012582     0.001200     NO 
 Predicted change in Energy=-1.678272D-05
 GradGradGradGradGradGradGradGradGradGradGradGradGradGradGradGradGradGrad

                          Input orientation:                          
 ---------------------------------------------------------------------
 Center     Atomic      Atomic             Coordinates (Angstroms)
 Number     Number       Type             X           Y           Z
 ---------------------------------------------------------------------
      1          6           0       -2.939070   -1.079041    0.292792
      2          1           0       -2.820382   -2.088553   -0.082914
      3          1           0       -3.676001   -0.439101   -0.173571
      4          6           0       -2.218616   -0.631963    1.317476
      5          1           0       -2.331577    0.383447    1.699008
      6          8           0       -1.320611   -1.406987    1.980674
      7          6           0       -0.417837   -0.713062    2.827189
      8          1           0       -0.951398   -0.093695    3.558109
      9          1           0        0.157755   -1.470370    3.356219
     10          1           0        0.265076   -0.079732    2.250099
 ---------------------------------------------------------------------
                    Distance matrix (angstroms):
                    1          2          3          4          5
     1  C    0.000000
     2  H    1.083677   0.000000
     3  H    1.081704   1.860375   0.000000
     4  C    1.330004   2.108286   2.093893   0.000000
     5  H    2.117868   3.086254   2.447573   1.090590   0.000000
     6  O    2.361335   2.640500   3.335482   1.359009   2.075342
     7  C    3.593567   4.016578   4.437933   2.351301   2.477403
     8  H    3.947663   4.552978   4.633380   2.629831   2.364068
     9  H    4.373563   4.591197   5.312309   3.241379   3.518489
    10  H    3.885386   4.358711   4.640626   2.709884   2.694595
                    6          7          8          9         10
     6  O    0.000000
     7  C    1.418844   0.000000
     8  H    2.085511   1.096607   0.000000
     9  H    2.020324   1.088437   1.779386   0.000000
    10  H    2.085329   1.095678   1.786307   1.780139   0.000000
 Stoichiometry    C3H6O
 Framework group  C1[X(C3H6O)]
 Deg. of freedom    24
 Full point group                 C1      NOp   1
 Largest Abelian subgroup         C1      NOp   1
 Largest concise Abelian subgroup C1      NOp   1
                         Standard orientation:                         
 ---------------------------------------------------------------------
 Center     Atomic      Atomic             Coordinates (Angstroms)
 Number     Number       Type             X           Y           Z
 ---------------------------------------------------------------------
      1          6           0        1.869627   -0.074644    0.063951
      2          1           0        2.101529   -1.129207    0.156002
      3          1           0        2.687113    0.633670    0.054273
      4          6           0        0.615466    0.350844   -0.058313
      5          1           0        0.375097    1.410731   -0.149133
      6          8           0       -0.447478   -0.494265   -0.111672
      7          6           0       -1.719356    0.106519    0.074082
      8          1           0       -1.884742    0.921072   -0.641251
      9          1           0       -2.459870   -0.672547   -0.097354
     10          1           0       -1.833724    0.494084    1.092523
 ---------------------------------------------------------------------
 Rotational constants (GHZ):          39.4542654           4.5075323           4.1803574
 Standard basis: 6-311G(d) (5D, 7F)
 There are    94 symmetry adapted cartesian basis functions of A   symmetry.
 There are    90 symmetry adapted basis functions of A   symmetry.
    90 basis functions,   158 primitive gaussians,    94 cartesian basis functions
    16 alpha electrons       16 beta electrons
       nuclear repulsion energy       119.4602860064 Hartrees.
 NAtoms=   10 NActive=   10 NUniq=   10 SFac= 1.00D+00 NAtFMM=   60 NAOKFM=F Big=F
 Integral buffers will be    131072 words long.
 Raffenetti 2 integral format.
 Two-electron integral symmetry is turned on.
 One-electron integrals computed using PRISM.
 NBasis=    90 RedAO= T EigKep=  2.68D-03  NBF=    90
 NBsUse=    90 1.00D-06 EigRej= -1.00D+00 NBFU=    90
 Initial guess from the checkpoint file:  "/home/kimariyb/g16/scratch/Gau-150378.chk"
 B after Tr=     0.000000   -0.000000   -0.000000
         Rot=    0.999998    0.002149    0.000214   -0.000109 Ang=   0.25 deg.
 ExpMin= 1.03D-01 ExpMax= 8.59D+03 ExpMxC= 1.30D+03 IAcc=2 IRadAn=         4 AccDes= 0.00D+00
 Harris functional with IExCor=  402 and IRadAn=       4 diagonalized for initial guess.
 HarFok:  IExCor=  402 AccDes= 0.00D+00 IRadAn=         4 IDoV= 1 UseB2=F ITyADJ=14
 ICtDFT=  3500011 ScaDFX=  1.000000  1.000000  1.000000  1.000000
 FoFCou: FMM=F IPFlag=           0 FMFlag=      100000 FMFlg1=           0
         NFxFlg=           0 DoJE=T BraDBF=F KetDBF=T FulRan=T
         wScrn=  0.000000 ICntrl=       500 IOpCl=  0 I1Cent=   200000004 NGrid=           0
         NMat0=    1 NMatS0=      1 NMatT0=    0 NMatD0=    1 NMtDS0=    0 NMtDT0=    0
 Petite list used in FoFCou.
 Keep R1 ints in memory in canonical form, NReq=17558572.
 Requested convergence on RMS density matrix=1.00D-08 within 128 cycles.
 Requested convergence on MAX density matrix=1.00D-06.
 Requested convergence on             energy=1.00D-06.
 No special actions if energy rises.
 Integral accuracy reduced to 1.0D-05 until final iterations.
 Initial convergence to 1.0D-05 achieved.  Increase integral accuracy.
 SCF Done:  E(RB3LYP) =  -193.159031559     A.U. after   10 cycles
            NFock= 10  Conv=0.20D-08     -V/T= 2.0035
 Calling FoFJK, ICntrl=      2127 FMM=F ISym2X=0 I1Cent= 0 IOpClX= 0 NMat=1 NMatS=1 NMatT=0.
 ***** Axes restored to original set *****
 -------------------------------------------------------------------
 Center     Atomic                   Forces (Hartrees/Bohr)
 Number     Number              X              Y              Z
 -------------------------------------------------------------------
      1        6           0.000212314   -0.000344096    0.000401997
      2        1           0.000084551   -0.000058147    0.000110751
      3        1           0.000020332    0.000253399   -0.000070291
      4        6          -0.000853932    0.000719426   -0.000725957
      5        1           0.000295590   -0.000272710    0.000202379
      6        8          -0.000066899   -0.000799816   -0.000380892
      7        6           0.000211103    0.000739762    0.000487572
      8        1          -0.000064142   -0.000052763    0.000056073
      9        1           0.000085442   -0.000220610    0.000063692
     10        1           0.000075640    0.000035555   -0.000145324
 -------------------------------------------------------------------
 Cartesian Forces:  Max     0.000853932 RMS     0.000370176

 GradGradGradGradGradGradGradGradGradGradGradGradGradGradGradGradGradGrad
 Berny optimization.
 Using GEDIIS/GDIIS optimizer.
 FormGI is forming the generalized inverse of G from B-inverse, IUseBI=4.
 Internal  Forces:  Max     0.000717160 RMS     0.000238050
 Search for a local minimum.
 Step number   6 out of a maximum of   41
 All quantities printed in internal units (Hartrees-Bohrs-Radians)
 Mixed Optimization -- En-DIIS/RFO-DIIS
 Swapping is turned off.
 Update second derivatives using D2CorX and points    1    2    3    4    5
                                                      6
 DE= -1.92D-05 DEPred=-1.68D-05 R= 1.15D+00
 TightC=F SS=  1.41D+00  RLast= 4.56D-02 DXNew= 8.4853D-01 1.3693D-01
 Trust test= 1.15D+00 RLast= 4.56D-02 DXMaxT set to 5.05D-01
 ITU=  1  1  1  1  1  0
     Eigenvalues ---    0.00294   0.01326   0.02608   0.02751   0.04305
     Eigenvalues ---    0.10449   0.10544   0.15700   0.15972   0.16050
     Eigenvalues ---    0.16132   0.17584   0.18121   0.21063   0.23452
     Eigenvalues ---    0.35615   0.37201   0.37230   0.37238   0.37263
     Eigenvalues ---    0.37788   0.39064   0.43782   0.60245
 En-DIIS/RFO-DIIS/Sim-DIIS IScMMF=       -3 using points:     6    5    4    3
 RFO step:  Lambda=-1.72158388D-05.
 DidBck=F Rises=F RFO-DIIS coefs:    1.85458   -0.67508   -0.27162    0.09212
 Iteration  1 RMS(Cart)=  0.01838443 RMS(Int)=  0.00015478
 Iteration  2 RMS(Cart)=  0.00023427 RMS(Int)=  0.00000569
 Iteration  3 RMS(Cart)=  0.00000002 RMS(Int)=  0.00000569
 Variable       Old X    -DE/DX   Delta X   Delta X   Delta X     New X
                                 (Linear)    (Quad)   (Total)
    R1        2.04785   0.00003  -0.00033   0.00010  -0.00023   2.04763
    R2        2.04413   0.00017  -0.00019   0.00035   0.00016   2.04429
    R3        2.51334  -0.00046   0.00048  -0.00075  -0.00026   2.51308
    R4        2.06092  -0.00021  -0.00120   0.00002  -0.00117   2.05974
    R5        2.56816   0.00037   0.00178  -0.00038   0.00140   2.56956
    R6        2.68123   0.00072   0.00006   0.00130   0.00136   2.68258
    R7        2.07229   0.00004  -0.00092   0.00037  -0.00055   2.07174
    R8        2.05685   0.00023  -0.00010   0.00033   0.00022   2.05707
    R9        2.07053   0.00014  -0.00030   0.00036   0.00006   2.07059
    A1        2.06719   0.00020   0.00066   0.00076   0.00140   2.06859
    A2        2.11873  -0.00010   0.00089  -0.00098  -0.00010   2.11863
    A3        2.09710  -0.00010  -0.00143   0.00022  -0.00122   2.09588
    A4        2.12515   0.00053  -0.00086   0.00287   0.00200   2.12716
    A5        2.14387  -0.00024  -0.00054  -0.00071  -0.00125   2.14262
    A6        2.01384  -0.00028   0.00145  -0.00215  -0.00070   2.01314
    A7        2.01825  -0.00038  -0.00014  -0.00114  -0.00128   2.01697
    A8        1.94369  -0.00002  -0.00003   0.00032   0.00029   1.94399
    A9        1.86103  -0.00013   0.00165  -0.00243  -0.00079   1.86024
   A10        1.94447  -0.00007  -0.00078   0.00043  -0.00035   1.94412
   A11        1.90320   0.00004  -0.00029   0.00018  -0.00011   1.90308
   A12        1.90482   0.00012  -0.00007   0.00110   0.00103   1.90585
   A13        1.90559   0.00006  -0.00046   0.00034  -0.00012   1.90546
    D1        3.13920   0.00002   0.00258  -0.00088   0.00169   3.14089
    D2       -0.03096   0.00003   0.00515  -0.00086   0.00430  -0.02666
    D3       -0.02285   0.00012   0.00834  -0.00086   0.00747  -0.01538
    D4        3.09017   0.00013   0.01091  -0.00084   0.01008   3.10025
    D5        2.89243   0.00013   0.03190   0.00347   0.03538   2.92781
    D6       -0.27605   0.00015   0.03433   0.00356   0.03787  -0.23818
    D7        0.96805   0.00008  -0.01072   0.00756  -0.00317   0.96489
    D8        3.04239   0.00004  -0.01009   0.00647  -0.00362   3.03876
    D9       -1.16314  -0.00001  -0.01007   0.00562  -0.00445  -1.16759
         Item               Value     Threshold  Converged?
 Maximum Force            0.000717     0.000450     NO 
 RMS     Force            0.000238     0.000300     YES
[...]
 Vib (Bot)    3  0.598919D+00         -0.222632         -0.512629
 Vib (Bot)    4  0.305045D+00         -0.515636         -1.187296
 Vib (V=0)       0.299365D+02          1.476201          3.399077
 Vib (V=0)    1  0.111066D+02          1.045580          2.407538
 Vib (V=0)    2  0.176470D+01          0.246671          0.567982
 Vib (V=0)    3  0.128019D+01          0.107276          0.247012
 Vib (V=0)    4  0.108571D+01          0.035713          0.082231
 Electronic      0.100000D+01          0.000000          0.000000
 Translational   0.173806D+08          7.240066         16.670868
 Rotational      0.316410D+05          4.500251         10.362210
 ***** Axes restored to original set *****
 -------------------------------------------------------------------
 Center     Atomic                   Forces (Hartrees/Bohr)
 Number     Number              X              Y              Z
 -------------------------------------------------------------------
      1        6           0.000005273   -0.000009085    0.000005791
      2        1          -0.000002641    0.000001418    0.000001385
      3        1           0.000001264    0.000005744   -0.000002874
      4        6          -0.000018577    0.000018537   -0.000015195
      5        1           0.000000429   -0.000000036    0.000005012
      6        8           0.000009718   -0.000026238   -0.000000560
      7        6           0.000002409    0.000007150    0.000005076
      8        1           0.000001324    0.000001492    0.000000385
      9        1           0.000001710   -0.000000354    0.000001430
     10        1          -0.000000908    0.000001373   -0.000000451
 -------------------------------------------------------------------
 Cartesian Forces:  Max     0.000026238 RMS     0.000008207
 FormGI is forming the generalized inverse of G from B-inverse, IUseBI=4.

 GradGradGradGradGradGradGradGradGradGradGradGradGradGradGradGradGradGrad
 Berny optimization.
 Internal  Forces:  Max     0.000021345 RMS     0.000005923
 Search for a local minimum.
 Step number   1 out of a maximum of    2
 All quantities printed in internal units (Hartrees-Bohrs-Radians)
 Second derivative matrix not updated -- analytic derivatives used.
 ITU=  0
     Eigenvalues ---    0.00016   0.00365   0.02452   0.03087   0.04636
     Eigenvalues ---    0.08845   0.08868   0.09742   0.10379   0.12928
     Eigenvalues ---    0.14038   0.18641   0.18973   0.20596   0.23223
     Eigenvalues ---    0.32360   0.32684   0.34496   0.34704   0.36126
     Eigenvalues ---    0.36489   0.38134   0.44566   0.63152
 Angle between quadratic step and forces=  86.13 degrees.
 Linear search not attempted -- first point.
 Iteration  1 RMS(Cart)=  0.00146283 RMS(Int)=  0.00000095
 Iteration  2 RMS(Cart)=  0.00000115 RMS(Int)=  0.00000000
 Iteration  3 RMS(Cart)=  0.00000000 RMS(Int)=  0.00000000
 Variable       Old X    -DE/DX   Delta X   Delta X   Delta X     New X
                                 (Linear)    (Quad)   (Total)
    R1        2.04785  -0.00000   0.00000  -0.00001  -0.00001   2.04785
    R2        2.04436   0.00000   0.00000   0.00001   0.00001   2.04437
    R3        2.51289  -0.00000   0.00000  -0.00001  -0.00001   2.51288
    R4        2.05927   0.00000   0.00000  -0.00001  -0.00001   2.05927
    R5        2.56962   0.00002   0.00000   0.00007   0.00007   2.56969
    R6        2.68374   0.00001   0.00000   0.00004   0.00004   2.68379
    R7        2.07157   0.00000   0.00000  -0.00001  -0.00001   2.07157
    R8        2.05737   0.00000   0.00000   0.00000   0.00000   2.05737
    R9        2.07107   0.00000   0.00000   0.00000   0.00000   2.07107
    A1        2.06927   0.00000   0.00000   0.00001   0.00001   2.06928
    A2        2.11756   0.00000   0.00000   0.00003   0.00003   2.11760
    A3        2.09634  -0.00000   0.00000  -0.00004  -0.00004   2.09629
    A4        2.12803   0.00000   0.00000   0.00003   0.00003   2.12806
    A5        2.14170   0.00000   0.00000  -0.00001  -0.00001   2.14170
    A6        2.01340  -0.00000   0.00000  -0.00002  -0.00002   2.01339
    A7        2.01754  -0.00002   0.00000  -0.00008  -0.00008   2.01745
    A8        1.94408   0.00000   0.00000   0.00001   0.00001   1.94409
    A9        1.85870   0.00000   0.00000   0.00000   0.00000   1.85870
   A10        1.94443  -0.00000   0.00000  -0.00001  -0.00001   1.94442
   A11        1.90349  -0.00000   0.00000   0.00001   0.00001   1.90350
   A12        1.90752  -0.00000   0.00000  -0.00000  -0.00000   1.90752
   A13        1.90441   0.00000   0.00000  -0.00001  -0.00001   1.90440
    D1        3.14105   0.00000   0.00000   0.00009   0.00009   3.14114
    D2       -0.01171   0.00000   0.00000   0.00032   0.00032  -0.01139
    D3       -0.00675   0.00000   0.00000   0.00031   0.00031  -0.00644
    D4        3.12368   0.00000   0.00000   0.00054   0.00054   3.12422
    D5        3.05317  -0.00000   0.00000   0.00209   0.00209   3.05525
    D6       -0.09891  -0.00000   0.00000   0.00230   0.00230  -0.09661
    D7        1.03313  -0.00000   0.00000   0.00097   0.00097   1.03410
    D8        3.10661   0.00000   0.00000   0.00099   0.00099   3.10760
    D9       -1.10179   0.00000   0.00000   0.00097   0.00097  -1.10082
         Item               Value     Threshold  Converged?
 Maximum Force            0.000021     0.000450     YES
 RMS     Force            0.000006     0.000300     YES
 Maximum Displacement     0.003005     0.001800     NO 
 RMS     Displacement     0.001463     0.001200     NO 
 Predicted change in Energy=-4.013278D-09
                           ----------------------------
                           ! Non-Optimized Parameters !
                           ! (Angstroms and Degrees)  !
 --------------------------                            --------------------------
 ! Name  Definition              Value          Derivative Info.                !
 --------------------------------------------------------------------------------
 ! R1    R(1,2)                  1.0837         -DE/DX =    0.0                 !
 ! R2    R(1,3)                  1.0818         -DE/DX =    0.0                 !
 ! R3    R(1,4)                  1.3298         -DE/DX =    0.0                 !
 ! R4    R(4,5)                  1.0897         -DE/DX =    0.0                 !
 ! R5    R(4,6)                  1.3598         -DE/DX =    0.0                 !
 ! R6    R(6,7)                  1.4202         -DE/DX =    0.0                 !
 ! R7    R(7,8)                  1.0962         -DE/DX =    0.0                 !
 ! R8    R(7,9)                  1.0887         -DE/DX =    0.0                 !
 ! R9    R(7,10)                 1.096          -DE/DX =    0.0                 !
 ! A1    A(2,1,3)              118.561          -DE/DX =    0.0                 !
 ! A2    A(2,1,4)              121.3293         -DE/DX =    0.0                 !
 ! A3    A(3,1,4)              120.1087         -DE/DX =    0.0                 !
 ! A4    A(1,4,5)              121.9287         -DE/DX =    0.0                 !
 ! A5    A(1,4,6)              122.7101         -DE/DX =    0.0                 !
 ! A6    A(5,4,6)              115.3585         -DE/DX =    0.0                 !
 ! A7    A(4,6,7)              115.5915         -DE/DX =    0.0                 !
 ! A8    A(6,7,8)              111.3882         -DE/DX =    0.0                 !
 ! A9    A(6,7,9)              106.4957         -DE/DX =    0.0                 !
 ! A10   A(6,7,10)             111.4072         -DE/DX =    0.0                 !
 ! A11   A(8,7,9)              109.0626         -DE/DX =    0.0                 !
 ! A12   A(8,7,10)             109.2929         -DE/DX =    0.0                 !
 ! A13   A(9,7,10)             109.114          -DE/DX =    0.0                 !
 ! D1    D(2,1,4,5)            179.9739         -DE/DX =    0.0                 !
 ! D2    D(2,1,4,6)             -0.6526         -DE/DX =    0.0                 !
 ! D3    D(3,1,4,5)             -0.369          -DE/DX =    0.0                 !
 ! D4    D(3,1,4,6)            179.0045         -DE/DX =    0.0                 !
 ! D5    D(1,4,6,7)            175.0532         -DE/DX =    0.0                 !
 ! D6    D(5,4,6,7)             -5.5352         -DE/DX =    0.0                 !
 ! D7    D(4,6,7,8)             59.2494         -DE/DX =    0.0                 !
 ! D8    D(4,6,7,9)            178.0522         -DE/DX =    0.0                 !
 ! D9    D(4,6,7,10)           -63.0724         -DE/DX =    0.0                 !
 --------------------------------------------------------------------------------
 GradGradGradGradGradGradGradGradGradGradGradGradGradGradGradGradGradGrad


 ----------------------------------------------------------------------

 Electric dipole moment (input orientation):
 (Debye = 10**-18 statcoulomb cm , SI units = C m)
                  (au)            (Debye)         (10**-30 SI)
   Tot        0.709101D+00      0.180235D+01      0.601201D+01
   x          0.281555D+00      0.715642D+00      0.238713D+01
   y          0.518511D+00      0.131792D+01      0.439612D+01
   z          0.393315D+00      0.999706D+00      0.333466D+01

 Dipole polarizability, Alpha (input orientation).
 (esu units = cm**3 , SI units = C**2 m**2 J**-1)
 Alpha(0;0):
               (au)            (10**-24 esu)      (10**-40 SI)
   iso        0.388691D+02      0.575981D+01      0.640865D+01
   aniso      0.292745D+02      0.433803D+01      0.482671D+01
   xx         0.407228D+02      0.603449D+01      0.671428D+01
   yx         0.164609D+01      0.243926D+00      0.271404D+00
   yy         0.339530D+02      0.503132D+01      0.559810D+01
   zx         0.155880D+02      0.230990D+01      0.257011D+01
   zy         0.463450D+01      0.686762D+00      0.764125D+00
   zz         0.419315D+02      0.621360D+01      0.691357D+01

 ----------------------------------------------------------------------

 Dipole orientation:
     6         -4.88022874         -0.73248179         -3.40644880
     1         -4.19953342         -1.60675715         -5.12865529
     1         -5.95852613          0.99850567         -3.54918550
     6         -4.42492452         -1.75212176         -1.15530345
     1         -5.09963711         -0.88835619          0.58804938
     8         -3.11508123         -3.94338065         -0.86267822
     6         -2.61186607         -4.66358549          1.67317486
     1         -4.36392215         -4.90482417          2.75184053
     1         -1.62441371         -6.46626977          1.58348272
     1         -1.40601793         -3.27655504          2.62785126

 Electric dipole moment (dipole orientation):
 (Debye = 10**-18 statcoulomb cm , SI units = C m)
                  (au)            (Debye)         (10**-30 SI)
   Tot        0.709101D+00      0.180235D+01      0.601201D+01
   x          0.000000D+00      0.000000D+00      0.000000D+00
   y          0.000000D+00      0.000000D+00      0.000000D+00
   z          0.709101D+00      0.180235D+01      0.601201D+01

 Dipole polarizability, Alpha (dipole orientation).
 (esu units = cm**3 , SI units = C**2 m**2 J**-1)
 Alpha(0;0):
               (au)            (10**-24 esu)      (10**-40 SI)
   iso        0.388691D+02      0.575981D+01      0.640865D+01
   aniso      0.292745D+02      0.433803D+01      0.482671D+01
   xx         0.296886D+02      0.439940D+01      0.489499D+01
   yx        -0.745270D+01     -0.110438D+01     -0.122878D+01
   yy         0.378624D+02      0.561063D+01      0.624267D+01
   zx         0.510396D+01      0.756329D+00      0.841529D+00
   zy        -0.104659D+02     -0.155089D+01     -0.172560D+01
   zz         0.490562D+02      0.726938D+01      0.808828D+01

 ----------------------------------------------------------------------
 1\1\GINC-LOCALHOST\Freq\RB3LYP\6-311G(d)\C3H6O1\KIMARIYB\13-Jul-2023\0
 \\#N Geom=AllCheck Guess=TCheck SCRF=Check GenChk RB3LYP/6-311G(d) Fre
 q\\Title Card Required\\0,1\C,-2.9639757043,-1.0901260063,0.3089893087
 \H,-2.915755958,-2.1273297224,-0.001234094\H,-3.6777784843,-0.43782938
 04,-0.1761401049\C,-2.1737061658,-0.6180470062,1.2686194503\H,-2.21359
 92382,0.4230991788,1.5878593376\O,-1.2728195766,-1.39502457,1.92719305
 1\C,-0.4295382301,-0.7135556691,2.8444575216\H,-1.0121813151,-0.206774
 5669,3.6225442084\H,0.1993151598,-1.4717038036,3.3081958356\H,0.207377
 2125,0.0182342162,2.3345976456\\Version=ES64L-G16RevA.03\State=1-A\HF=
 -193.1590563\RMSD=1.702e-09\RMSF=8.207e-06\ZeroPoint=0.084112\Thermal=
 0.0894407\Dipole=0.2815553,0.5185111,0.3933148\DipoleDeriv=-0.434374,-
 0.1336383,-0.0366096,-0.1701575,0.0111393,-0.0203038,-0.0581414,0.0242
 553,-0.4842434,0.1200722,0.0503537,-0.0498757,0.0240179,-0.0676216,-0.
 0645189,-0.0585165,-0.0353007,0.1160719,0.0414924,0.0636758,-0.0932912
 ,0.086662,-0.0000578,0.0319209,-0.0819204,0.006063,0.0785374,0.756918,
 -0.0809323,0.7507996,-0.5497771,0.3171041,-0.4100041,0.6279165,0.05110
 42,0.6358292,0.0817114,-0.0072792,-0.0673737,0.0533884,-0.1062644,-0.0
 365056,-0.0570551,-0.0995451,0.0541563,-1.1080544,-0.0780086,-0.813468
 2,0.393992,-0.4709541,0.3344424,-0.6913124,-0.1400634,-0.9870674,0.682
 8118,0.1474594,0.2837483,0.271119,0.4193359,0.2584747,0.3182554,0.1468
 038,0.732394,-0.0546346,0.0709876,0.1113365,-0.0218982,-0.0046748,-0.1
 473341,0.0102245,-0.0765503,-0.1188839,-0.0115789,0.0541276,-0.0831429
 ,0.0946163,-0.0353085,0.0698813,-0.0753589,0.0315555,0.0206711,-0.0743
 639,-0.0867458,-0.0021232,-0.1819629,-0.0626981,-0.0160529,0.0659083,0
 .0916779,-0.0474652\Polar=40.7227579,1.6460937,33.9530347,15.5879923,4
 .6344974,41.9314812\Quadrupole=0.1172825,-0.1624621,0.0451796,-0.13356
 15,1.9228891,0.5633234\PG=C01 [X(C3H6O1)]\NImag=0\\0.45628694,-0.05662
 910,0.64384840,0.35653871,0.13877178,0.48740149,-0.04485732,0.01920625
 ,-0.00890765,0.03601237,0.01572519,-0.31481511,-0.08317301,-0.01648977
 ,0.33170899,-0.00996655,-0.07948485,-0.06685738,0.01021180,0.09131918,
 0.06196325,-0.16472077,0.11947579,-0.10157297,0.00159645,-0.00159223,0
 .00096430,0.17260438,0.12422079,-0.16191139,0.07525478,0.01647724,-0.0
 1000245,0.01288329,-0.12927256,0.16201033,-0.09960036,0.07052910,-0.09
 647276,0.00717390,-0.00503387,0.00550523,0.10809207,-0.07935611,0.0996
 8244,-0.22493991,-0.08851459,-0.20800086,0.00681803,0.00296497,0.00101
 146,-0.01101631,-0.01010360,-0.01118302,0.46166059,-0.08924828,-0.1790
 5681,-0.13504183,-0.01943665,-0.00898584,-0.02486285,0.01320742,0.0085
 4393,0.01751711,0.00630438,0.64425832,-0.20875440,-0.13426440,-0.30361
 660,-0.00642977,-0.00238876,-0.00095720,-0.00286612,-0.00593668,-0.008
 73348,0.33816799,0.17989580,0.52755514,0.00653486,-0.01773144,-0.00598
 867,0.00307195,0.00049056,-0.00730035,-0.00251787,-0.00084326,0.003093
 32,-0.04965745,0.00436367,-0.00879206,0.04647109,0.00195068,-0.0065227
 1,-0.00245968,0.00065529,0.00125988,-0.00237493,-0.00142618,0.00047790
 ,0.00070852,0.00730471,-0.29265534,-0.07982283,-0.01588412,0.31758952,
 0.00056882,-0.02243021,-0.00092649,-0.00732591,-0.00271661,0.00245316,
 0.00294865,0.00139105,-0.00262667,-0.00763149,-0.08317034,-0.07552579,
 0.01828920,0.08518336,0.07091956,-0.02860176,0.02102213,-0.03253331,-0
 .00190632,-0.00093502,0.00445556,0.00278185,-0.00047892,-0.00577381,-0
 .15442963,0.10218340,-0.08592851,-0.00544285,0.00991903,-0.00752970,0.
 32983200,0.00202530,0.02101939,0.00577447,-0.00041670,0.00056759,0.002
 10379,-0.00133990,0.00041228,-0.00482747,0.06547206,-0.18124462,0.0234
 8932,0.02712765,-0.02199267,0.01888490,-0.04741194,0.31773677,-0.03893
 787,0.02457571,-0.02152807,0.00462742,0.00163126,-0.00155693,-0.006195
 30,-0.00349210,0.00170763,-0.09457390,0.05835976,-0.11356696,-0.001329
 53,0.00009221,0.00375428,0.23826405,0.01791374,0.28611007,0.00264137,0
 .00172379,0.00242739,-0.00093322,-0.00031590,0.00057481,0.00171300,0.0
 0016703,-0.00160167,-0.03587712,-0.00673009,-0.02687455,0.00217079,-0.
 00360682,-0.00029399,-0.11512358,-0.02530388,-0.05815298,0.54525505,0.
 00447122,-0.00427486,0.00281293,-0.00023228,0.00027308,0.00014186,0.00
 126367,0.00060787,0.00074168,0.01266029,0.01344765,0.01706159,0.003188
 61,-0.00016807,0.00290537,-0.05147418,-0.12847558,-0.06347943,-0.05584
 867,0.57089350,0.00268540,0.00036705,0.00413957,0.00052557,0.00026449,
 -0.00087013,-0.00116534,-0.00063956,0.00145893,-0.02343235,-0.00091251
 ,-0.03037901,0.00203878,-0.00331467,0.00248838,-0.06383968,-0.03943415
 ,-0.12348305,-0.03067177,-0.05159332,0.52688599,-0.00053902,-0.0002486
 1,-0.00030491,0.00032798,0.00021580,-0.00033414,-0.00041504,-0.0000923
 9,0.00037665,0.00402160,-0.00260133,0.00007034,0.00007844,0.00017468,0
 .00054165,0.01075136,-0.01405272,-0.02394139,-0.13639086,0.06648300,0.
 10129214,0.14005754,-0.00098752,0.00019860,-0.00059682,0.00007849,0.00
 000259,0.00010840,-0.00008585,-0.00000007,-0.00003907,0.00242160,-0.00
 122805,0.00284413,-0.00004717,0.00073048,-0.00011701,0.00002559,-0.010
 48505,-0.02019112,0.06217049,-0.10014845,-0.07279901,-0.06517825,0.107
 61657,-0.00135817,0.00092081,-0.00093685,0.00036937,0.00020739,-0.0000
 2264,-0.00037389,-0.00010773,0.00013294,0.00525682,-0.00515817,0.00291
 175,-0.00032765,0.00145706,-0.00034703,-0.00340294,-0.01620936,-0.0243
 3015,0.09796756,-0.07165812,-0.16798542,-0.10232867,0.09132308,0.18780
 255,-0.00066483,0.00094319,-0.00048332,-0.00000349,-0.00007805,0.00001
 318,-0.00018945,-0.00013315,-0.00022580,-0.00042130,-0.00333063,-0.002
 22118,-0.00007022,-0.00001961,0.00025213,-0.01851939,0.01229602,-0.015
 49036,-0.13390257,0.10594284,-0.05904945,-0.00904816,0.01335180,-0.006
 89016,0.14936435,-0.00058701,0.00108317,-0.00027740,0.00008337,-0.0000
 2528,0.00009480,-0.00014883,-0.00012034,-0.00018566,-0.00196667,-0.001
 32888,-0.00254383,-0.00038123,0.00061957,-0.00004714,-0.01525415,0.014
 87442,-0.01176136,0.11619503,-0.19486253,0.08522153,0.00607199,-0.0085
 0783,0.00588843,-0.11599488,0.20138799,-0.00088631,0.00114076,-0.00028
 525,0.00006614,-0.00006059,0.00001090,-0.00018598,-0.00014463,-0.00027
 611,-0.00114933,-0.00373789,-0.00148828,0.00007487,0.00029754,-0.00016
 428,-0.02095212,0.01373953,-0.01618088,-0.05728281,0.07593708,-0.09327
 066,0.01297569,-0.01613331,0.01231081,0.07606996,-0.08329307,0.1050041
 6,-0.00113955,0.00075259,-0.00117441,-0.00012644,0.00001444,0.00036992
 ,0.00016374,0.00005880,-0.00035128,0.00384151,-0.00471188,0.00362827,-
 0.00063873,0.00093235,0.00018064,-0.01934169,-0.01839590,-0.00427016,-
 0.12955286,-0.08645451,0.07161670,-0.00884384,-0.01174917,0.01108772,0
 .01345506,0.01198239,-0.00873010,0.14218282,-0.00094127,0.00043132,-0.
 00106521,0.00007476,0.00001655,0.00007130,-0.00008135,-0.00001807,-0.0
 0005422,0.00345685,-0.00175037,0.00166565,-0.00028327,0.00066144,0.000
 11664,-0.01759594,-0.01241253,-0.00364866,-0.08845097,-0.15729260,0.08
 284015,0.00922782,0.01182120,-0.00666339,-0.01297753,-0.01312028,0.012
 25457,0.10757090,0.17166335,-0.00028928,-0.00012575,-0.00091766,-0.000
 31087,-0.00004948,0.00033175,0.00035458,0.00014771,-0.00037815,0.00153
 468,-0.00288909,0.00380043,0.00024209,0.00023342,-0.00002512,-0.022759
 54,-0.02143477,0.00907407,0.07390802,0.08713036,-0.11898460,0.01165263
 ,0.01560073,-0.00953596,0.00802500,0.00690370,-0.00566041,-0.07235731,
 -0.08551683,0.12229566\\-0.00000527,0.00000909,-0.00000579,0.00000264,
 -0.00000142,-0.00000139,-0.00000126,-0.00000574,0.00000287,0.00001858,
 -0.00001854,0.00001519,-0.00000043,0.00000004,-0.00000501,-0.00000972,
 0.00002624,0.00000056,-0.00000241,-0.00000715,-0.00000508,-0.00000132,
 -0.00000149,-0.00000039,-0.00000171,0.00000035,-0.00000143,0.00000091,
 -0.00000137,0.00000045\\\@


     "IF I COULD JUST GET IT ON PAPER"
 LIFE AND INK, THEY RUN OUT AT THE SAME TIME,
 OR SO SAID MY OLD FRIEND THE SQUID.
     -- JIMMY BUFFETT, 1981
 Job cpu time:       0 days  0 hours  1 minutes 32.0 seconds.
 Elapsed time:       0 days  0 hours  0 minutes  9.4 seconds.
 File lengths (MBytes):  RWF=     13 Int=      0 D2E=      0 Chk=      2 Scr=      1
 Normal termination of Gaussian 16 at Thu Jul 13 12:33:57 2023.
