 Entering Gaussian System, Link 0=g16
 Initial command:
 /home/kimariyb/g16/l1.exe "/home/kimariyb/g16/scratch/Gau-148906.inp" -scrdir="/home/kimariyb/g16/scratch/"
 Default is to use a total of  10 processors:
                               10 via shared-memory
                                1 via Linda
 Entering Link 1 = /home/kimariyb/g16/l1.exe PID=    148907.
  
 Copyright (c) 1988,1990,1992,1993,1995,1998,2003,2009,2016,
            Gaussian, Inc.  All Rights Reserved.
  
 This is part of the Gaussian(R) 16 program.  It is based on
 the Gaussian(R) 09 system (copyright 2009, Gaussian, Inc.),
 the Gaussian(R) 03 system (copyright 2003, Gaussian, Inc.),
 the Gaussian(R) 98 system (copyright 1998, Gaussian, Inc.),
 the Gaussian(R) 94 system (copyright 1995, Gaussian, Inc.),
 the Gaussian 92(TM) system (copyright 1992, Gaussian, Inc.),
 the Gaussian 90(TM) system (copyright 1990, Gaussian, Inc.),
 the Gaussian 88(TM) system (copyright 1988, Gaussian, Inc.),
 the Gaussian 86(TM) system (copyright 1986, Carnegie Mellon
 University), and the Gaussian 82(TM) system (copyright 1983,
 Carnegie Mellon University). Gaussian is a federally registered
 trademark of Gaussian, Inc.
  
 This software contains proprietary and confidential information,
 including trade secrets, belonging to Gaussian, Inc.
  
 This software is provided under written license and may be
 used, copied, transmitted, or stored only in accord with that
 written license.
  
 The following legend is applicable only to US Government
 contracts under FAR:
  
                    RESTRICTED RIGHTS LEGEND
  
 Use, reproduction and disclosure by the US Government is
 subject to restrictions as set forth in subparagraphs (a)
 and (c) of the Commercial Computer Software - Restricted
 Rights clause in FAR 52.227-19.
  
 Gaussian, Inc.
 340 Quinnipiac St., Bldg. 40, Wallingford CT 06492
  
  
 ---------------------------------------------------------------
 Warning -- This program may not be used in any manner that
 competes with the business of Gaussian, Inc. or will provide
 assistance to any competitor of Gaussian, Inc.  The licensee
 of this program is prohibited from giving any competitor of
 Gaussian, Inc. access to this program.  By using this program,
 the user acknowledges that Gaussian, Inc. is engaged in the
 business of creating and licensing software in the field of
 computational chemistry and represents and warrants to the
 licensee that it is not a competitor of Gaussian, Inc. and that
 it will not use this program in any manner prohibited above.
 ---------------------------------------------------------------
  

 Cite this work as:
 Gaussian 16, Revision A.03,
 M. J. Frisch, G. W. Trucks, H. B. Schlegel, G. E. Scuseria, 
 M. A. Robb, J. R. Cheeseman, G. Scalmani, V. Barone, 
 G. A. Petersson, H. Nakatsuji, X. Li, M. Caricato, A. V. Marenich, 
 J. Bloino, B. G. Janesko, R. Gomperts, B. Mennucci, H. P. Hratchian, 
 J. V. Ortiz, A. F. Izmaylov, J. L. Sonnenberg, D. Williams-Young, 
 F. Ding, F. Lipparini, F. Egidi, J. Goings, B. Peng, A. Petrone, 
 T. Henderson, D. Ranasinghe, V. G. Zakrzewski, J. Gao, N. Rega, 
 G. Zheng, W. Liang, M. Hada, M. Ehara, K. Toyota, R. Fukuda, 
 J. Hasegawa, M. Ishida, T. Nakajima, Y. Honda, O. Kitao, H. Nakai, 
 T. Vreven, K. Throssell, J. A. Montgomery, Jr., J. E. Peralta, 
 F. Ogliaro, M. J. Bearpark, J. J. Heyd, E. N. Brothers, K. N. Kudin, 
 V. N. Staroverov, T. A. Keith, R. Kobayashi, J. Normand, 
 K. Raghavachari, A. P. Rendell, J. C. Burant, S. S. Iyengar, 
 J. Tomasi, M. Cossi, J. M. Millam, M. Klene, C. Adamo, R. Cammi, 
 J. W. Ochterski, R. L. Martin, K. Morokuma, O. Farkas, 
 J. B. Foresman, and D. J. Fox, Gaussian, Inc., Wallingford CT, 2016.
 
 ******************************************
 Gaussian 16:  ES64L-G16RevA.03 25-Dec-2016
                13-Jul-2023 
 ******************************************
 ------------------------
 # opt freq b3lyp/6-311g*
 ------------------------
 1/18=20,19=15,26=3,38=1/1,3;
 2/9=110,12=2,17=6,18=5,40=1/2;
 3/5=4,6=6,7=1,11=2,25=1,30=1,71=1,74=-5/1,2,3;
 4//1;
 5/5=2,38=5/2;
 6/7=2,8=2,9=2,10=2,28=1/1;
 7//1,2,3,16;
 1/18=20,19=15,26=3/3(2);
 2/9=110/2;
 99//99;
 2/9=110/2;
 3/5=4,6=6,7=1,11=2,25=1,30=1,71=1,74=-5/1,2,3;
 4/5=5,16=3,69=1/1;
 5/5=2,38=5/2;
 7//1,2,3,16;
 1/18=20,19=15,26=3/3(-5);
 2/9=110/2;
 6/7=2,8=2,9=2,10=2,19=2,28=1/1;
 99/9=1/99;
 -------------------
 Title Card Required
 -------------------
 Symbolic Z-matrix:
 Charge =  0 Multiplicity = 1
 C                    -2.90154  -1.04764   0.27488 
 H                    -3.10152  -2.09468   0.36762 
 H                    -3.82438  -0.51604   0.17159 
 C                    -2.25082  -0.61231   1.38106 
 O                    -1.39368  -1.49625   2.10828 
 C                    -0.41018  -0.73397   2.81295 
 H                    -0.89637  -0.06767   3.49454 
 H                     0.23118  -1.39538   3.3571 
 H                     0.17056  -0.16848   2.11448 
 H                    -1.65916   0.22955   1.0876 
 H                    -2.29249  -0.8759   -0.58794 
 Br                   -3.57747   0.01617   2.60299 
 

 GradGradGradGradGradGradGradGradGradGradGradGradGradGradGradGradGradGrad
 Berny optimization.
 Initialization pass.
                           ----------------------------
                           !    Initial Parameters    !
                           ! (Angstroms and Degrees)  !
 --------------------------                            --------------------------
 ! Name  Definition              Value          Derivative Info.                !
 --------------------------------------------------------------------------------
 ! R1    R(1,2)                  1.07           estimate D2E/DX2                !
 ! R2    R(1,3)                  1.07           estimate D2E/DX2                !
 ! R3    R(1,4)                  1.3552         estimate D2E/DX2                !
 ! R4    R(1,11)                 1.07           estimate D2E/DX2                !
 ! R5    R(4,5)                  1.43           estimate D2E/DX2                !
 ! R6    R(4,10)                 1.07           estimate D2E/DX2                !
 ! R7    R(4,12)                 1.91           estimate D2E/DX2                !
 ! R8    R(5,6)                  1.43           estimate D2E/DX2                !
 ! R9    R(6,7)                  1.07           estimate D2E/DX2                !
 ! R10   R(6,8)                  1.07           estimate D2E/DX2                !
 ! R11   R(6,9)                  1.07           estimate D2E/DX2                !
 ! A1    A(2,1,3)              109.4712         estimate D2E/DX2                !
 ! A2    A(2,1,4)              109.4712         estimate D2E/DX2                !
 ! A3    A(2,1,11)             109.4712         estimate D2E/DX2                !
 ! A4    A(3,1,4)              109.4712         estimate D2E/DX2                !
 ! A5    A(3,1,11)             109.4712         estimate D2E/DX2                !
 ! A6    A(4,1,11)             109.4712         estimate D2E/DX2                !
 ! A7    A(1,4,5)              120.2881         estimate D2E/DX2                !
 ! A8    A(1,4,10)             107.1204         estimate D2E/DX2                !
 ! A9    A(1,4,12)             107.1204         estimate D2E/DX2                !
 ! A10   A(5,4,10)             107.1204         estimate D2E/DX2                !
 ! A11   A(5,4,12)             107.1204         estimate D2E/DX2                !
 ! A12   A(10,4,12)            107.4962         estimate D2E/DX2                !
 ! A13   A(4,5,6)              109.4712         estimate D2E/DX2                !
 ! A14   A(5,6,7)              109.4712         estimate D2E/DX2                !
 ! A15   A(5,6,8)              109.4712         estimate D2E/DX2                !
 ! A16   A(5,6,9)              109.4712         estimate D2E/DX2                !
 ! A17   A(7,6,8)              109.4712         estimate D2E/DX2                !
 ! A18   A(7,6,9)              109.4712         estimate D2E/DX2                !
 ! A19   A(8,6,9)              109.4712         estimate D2E/DX2                !
 ! D1    D(2,1,4,5)             30.0            estimate D2E/DX2                !
 ! D2    D(2,1,4,10)           152.4547         estimate D2E/DX2                !
 ! D3    D(2,1,4,12)           -92.4547         estimate D2E/DX2                !
 ! D4    D(3,1,4,5)            150.0            estimate D2E/DX2                !
 ! D5    D(3,1,4,10)           -87.5453         estimate D2E/DX2                !
 ! D6    D(3,1,4,12)            27.5453         estimate D2E/DX2                !
 ! D7    D(11,1,4,5)           -90.0            estimate D2E/DX2                !
 ! D8    D(11,1,4,10)           32.4547         estimate D2E/DX2                !
 ! D9    D(11,1,4,12)          147.5453         estimate D2E/DX2                !
 ! D10   D(1,4,5,6)            154.6266         estimate D2E/DX2                !
 ! D11   D(10,4,5,6)            32.1719         estimate D2E/DX2                !
 ! D12   D(12,4,5,6)           -82.9187         estimate D2E/DX2                !
 ! D13   D(4,5,6,7)             60.0            estimate D2E/DX2                !
 ! D14   D(4,5,6,8)            180.0            estimate D2E/DX2                !
 ! D15   D(4,5,6,9)            -60.0            estimate D2E/DX2                !
 --------------------------------------------------------------------------------
 Trust Radius=3.00D-01 FncErr=1.00D-07 GrdErr=1.00D-06 EigMax=2.50D+02 EigMin=1.00D-04
 Number of steps in this run=     55 maximum allowed number of steps=    100.
 GradGradGradGradGradGradGradGradGradGradGradGradGradGradGradGradGradGrad

                          Input orientation:                          
 ---------------------------------------------------------------------
 Center     Atomic      Atomic             Coordinates (Angstroms)
 Number     Number       Type             X           Y           Z
 ---------------------------------------------------------------------
      1          6           0       -2.901536   -1.047637    0.274882
      2          1           0       -3.101521   -2.094683    0.367623
      3          1           0       -3.824376   -0.516039    0.171587
      4          6           0       -2.250815   -0.612310    1.381056
      5          8           0       -1.393675   -1.496252    2.108282
      6          6           0       -0.410177   -0.733968    2.812948
      7          1           0       -0.896368   -0.067670    3.494538
      8          1           0        0.231180   -1.395380    3.357096
      9          1           0        0.170562   -0.168476    2.114479
     10          1           0       -1.659158    0.229547    1.087597
     11          1           0       -2.292489   -0.875902   -0.587943
     12         35           0       -3.577466    0.016165    2.602988
 ---------------------------------------------------------------------
                    Distance matrix (angstroms):
                    1          2          3          4          5
     1  C    0.000000
     2  H    1.070000   0.000000
     3  H    1.070000   1.747303   0.000000
     4  C    1.355200   1.987002   1.987002   0.000000
     5  O    2.415834   2.510926   3.258821   1.430000   0.000000
     6  C    3.570299   3.882589   4.322157   2.335180   1.430000
     7  H    3.917552   4.330021   4.451547   2.568651   2.051796
     8  H    4.408501   4.531321   5.231467   3.267757   2.051796
     9  H    3.687116   4.179510   4.455913   2.568651   2.051796
    10  H    1.958368   2.828572   2.466402   1.070000   2.022538
    11  H    1.070000   1.747303   1.747303   1.987002   2.909009
    12  Br   2.647382   3.111119   2.501183   1.910000   2.702051
                    6          7          8          9         10
     6  C    0.000000
     7  H    1.070000   0.000000
     8  H    1.070000   1.747303   0.000000
     9  H    1.070000   1.747303   1.747303   0.000000
    10  H    2.337767   2.542352   3.371111   2.135599   0.000000
    11  H    3.889641   4.389652   4.711910   3.724266   2.104890
    12  Br   3.261672   2.826689   4.131213   3.784236   2.453945
                   11         12
    11  H    0.000000
    12  Br   3.553730   0.000000
 Stoichiometry    C3H7BrO
 Framework group  C1[X(C3H7BrO)]
 Deg. of freedom    30
 Full point group                 C1      NOp   1
 Largest Abelian subgroup         C1      NOp   1
 Largest concise Abelian subgroup C1      NOp   1
                         Standard orientation:                         
 ---------------------------------------------------------------------
 Center     Atomic      Atomic             Coordinates (Angstroms)
 Number     Number       Type             X           Y           Z
 ---------------------------------------------------------------------
      1          6           0        0.131825    1.957926    0.027288
      2          1           0        0.295450    2.216849   -0.997937
      3          1           0       -0.905597    2.072547    0.262907
      4          6           0        0.502176    0.670605    0.232743
      5          8           0        1.548043    0.087489   -0.548947
      6          6           0        2.150593   -0.982685    0.183556
      7          1           0        1.412101   -1.725501    0.402080
      8          1           0        2.933165   -1.419002   -0.401344
      9          1           0        2.557373   -0.604309    1.098030
     10          1           0        0.791713    0.586153    1.259356
     11          1           0        0.713212    2.600790    0.654676
     12         35           0       -1.053981   -0.408643   -0.015649
 ---------------------------------------------------------------------
 Rotational constants (GHZ):           4.7119843           2.3685002           1.6861150
 Standard basis: 6-311G(d) (5D, 7F)
 There are   144 symmetry adapted cartesian basis functions of A   symmetry.
 There are   137 symmetry adapted basis functions of A   symmetry.
   137 basis functions,   253 primitive gaussians,   144 cartesian basis functions
    34 alpha electrons       34 beta electrons
       nuclear repulsion energy       358.3369371871 Hartrees.
 NAtoms=   12 NActive=   12 NUniq=   12 SFac= 1.00D+00 NAtFMM=   60 NAOKFM=F Big=F
 Integral buffers will be    131072 words long.
 Raffenetti 2 integral format.
 Two-electron integral symmetry is turned on.
 One-electron integrals computed using PRISM.
 NBasis=   137 RedAO= T EigKep=  1.70D-03  NBF=   137
 NBsUse=   137 1.00D-06 EigRej= -1.00D+00 NBFU=   137
 ExpMin= 1.03D-01 ExpMax= 4.40D+05 ExpMxC= 1.51D+04 IAcc=3 IRadAn=         5 AccDes= 0.00D+00
 Harris functional with IExCor=  402 and IRadAn=       5 diagonalized for initial guess.
 HarFok:  IExCor=  402 AccDes= 0.00D+00 IRadAn=         5 IDoV= 1 UseB2=F ITyADJ=14
 ICtDFT=  3500011 ScaDFX=  1.000000  1.000000  1.000000  1.000000
 FoFCou: FMM=F IPFlag=           0 FMFlag=      100000 FMFlg1=           0
         NFxFlg=           0 DoJE=T BraDBF=F KetDBF=T FulRan=T
         wScrn=  0.000000 ICntrl=       500 IOpCl=  0 I1Cent=   200000004 NGrid=           0
         NMat0=    1 NMatS0=      1 NMatT0=    0 NMatD0=    1 NMtDS0=    0 NMtDT0=    0
 Petite list used in FoFCou.
 Keep R1 ints in memory in canonical form, NReq=54395343.
 Requested convergence on RMS density matrix=1.00D-08 within 128 cycles.
 Requested convergence on MAX density matrix=1.00D-06.
 Requested convergence on             energy=1.00D-06.
 No special actions if energy rises.
 Integral accuracy reduced to 1.0D-05 until final iterations.
 Initial convergence to 1.0D-05 achieved.  Increase integral accuracy.
 SCF Done:  E(RB3LYP) =  -2767.90447316     A.U. after   13 cycles
            NFock= 13  Conv=0.63D-08     -V/T= 2.0011

 **********************************************************************

            Population analysis using the SCF density.

 **********************************************************************

 Orbital symmetries:
       Occupied  (A) (A) (A) (A) (A) (A) (A) (A) (A) (A) (A) (A)
                 (A) (A) (A) (A) (A) (A) (A) (A) (A) (A) (A) (A)
                 (A) (A) (A) (A) (A) (A) (A) (A) (A) (A)
       Virtual   (A) (A) (A) (A) (A) (A) (A) (A) (A) (A) (A) (A)
                 (A) (A) (A) (A) (A) (A) (A) (A) (A) (A) (A) (A)
                 (A) (A) (A) (A) (A) (A) (A) (A) (A) (A) (A) (A)
                 (A) (A) (A) (A) (A) (A) (A) (A) (A) (A) (A) (A)
                 (A) (A) (A) (A) (A) (A) (A) (A) (A) (A) (A) (A)
                 (A) (A) (A) (A) (A) (A) (A) (A) (A) (A) (A) (A)
                 (A) (A) (A) (A) (A) (A) (A) (A) (A) (A) (A) (A)
                 (A) (A) (A) (A) (A) (A) (A) (A) (A) (A) (A) (A)
                 (A) (A) (A) (A) (A) (A) (A)
 The electronic state is 1-A.
 Alpha  occ. eigenvalues -- -482.80768 -62.46171 -56.28156 -56.27821 -56.27812
 Alpha  occ. eigenvalues --  -19.14167 -10.26559 -10.21310 -10.16214  -8.67218
 Alpha  occ. eigenvalues --   -6.50274  -6.49116  -6.49105  -2.61399  -2.61062
 Alpha  occ. eigenvalues --   -2.61055  -2.60133  -2.60132  -1.05566  -0.85176
 Alpha  occ. eigenvalues --   -0.75233  -0.70419  -0.61231  -0.52652  -0.49736
 Alpha  occ. eigenvalues --   -0.48302  -0.45532  -0.41684  -0.40251  -0.36832
 Alpha  occ. eigenvalues --   -0.34645  -0.29018  -0.27606  -0.27008
 Alpha virt. eigenvalues --    0.00379   0.03854   0.06741   0.08446   0.09471
 Alpha virt. eigenvalues --    0.11376   0.12202   0.12776   0.13973   0.20391
 Alpha virt. eigenvalues --    0.22738   0.27271   0.29424   0.29883   0.31575
 Alpha virt. eigenvalues --    0.32407   0.34136   0.36409   0.39095   0.42657
 Alpha virt. eigenvalues --    0.44441   0.49512   0.50008   0.53934   0.55855
 Alpha virt. eigenvalues --    0.56531   0.57124   0.58345   0.58831   0.59977
 Alpha virt. eigenvalues --    0.64895   0.65841   0.67436   0.70275   0.76329
 Alpha virt. eigenvalues --    0.77328   0.84843   0.90299   0.95952   0.99656
 Alpha virt. eigenvalues --    1.02245   1.12308   1.21163   1.22936   1.32436
 Alpha virt. eigenvalues --    1.43719   1.45696   1.47746   1.50454   1.52290
 Alpha virt. eigenvalues --    1.59547   1.61980   1.64317   1.66156   1.70837
 Alpha virt. eigenvalues --    1.83890   1.92778   1.94422   1.97564   2.02007
 Alpha virt. eigenvalues --    2.10441   2.29939   2.31878   2.36887   2.38940
 Alpha virt. eigenvalues --    2.42019   2.44922   2.49374   2.74753   2.79393
 Alpha virt. eigenvalues --    2.88342   2.96136   3.04506   3.13777   3.17276
 Alpha virt. eigenvalues --    3.17478   3.19509   3.28158   3.31316   3.58987
 Alpha virt. eigenvalues --    3.84458   3.93203   4.17258   4.18801   4.29132
 Alpha virt. eigenvalues --    4.32180   4.55904   4.91435   5.15492   5.51917
 Alpha virt. eigenvalues --    6.51584   7.49736   7.53825   7.62235  23.35137
 Alpha virt. eigenvalues --   23.43602  24.08014  47.80975  49.85584 289.70064
 Alpha virt. eigenvalues --  289.74309 289.847501020.56384
          Condensed to atoms (all electrons):
               1          2          3          4          5          6
     1  C    5.400597   0.370160   0.409271   0.274446  -0.030820   0.007052
     2  H    0.370160   0.468415  -0.017260  -0.048664   0.003628  -0.000561
     3  H    0.409271  -0.017260   0.454319  -0.049881   0.003796  -0.000574
     4  C    0.274446  -0.048664  -0.049881   5.169624   0.279000  -0.108056
     5  O   -0.030820   0.003628   0.003796   0.279000   8.003878   0.272402
     6  C    0.007052  -0.000561  -0.000574  -0.108056   0.272402   5.178387
     7  H   -0.000056   0.000062   0.000122  -0.010365  -0.039583   0.373655
     8  H   -0.000251  -0.000014   0.000028   0.008445  -0.019081   0.386088
     9  H   -0.000144   0.000333  -0.000082  -0.020544  -0.035614   0.382216
    10  H   -0.073526   0.016608   0.000788   0.385701  -0.047140  -0.012534
    11  H    0.380209  -0.028193  -0.031270  -0.039946   0.002742  -0.000026
    12  Br  -0.127202   0.000095  -0.022206   0.275038  -0.070779  -0.023361
               7          8          9         10         11         12
     1  C   -0.000056  -0.000251  -0.000144  -0.073526   0.380209  -0.127202
     2  H    0.000062  -0.000014   0.000333   0.016608  -0.028193   0.000095
     3  H    0.000122   0.000028  -0.000082   0.000788  -0.031270  -0.022206
     4  C   -0.010365   0.008445  -0.020544   0.385701  -0.039946   0.275038
     5  O   -0.039583  -0.019081  -0.035614  -0.047140   0.002742  -0.070779
     6  C    0.373655   0.386088   0.382216  -0.012534  -0.000026  -0.023361
     7  H    0.511597  -0.028051  -0.047899  -0.004826   0.000071   0.019467
     8  H   -0.028051   0.455102  -0.028265   0.000798  -0.000043  -0.000626
     9  H   -0.047899  -0.028265   0.527595   0.015149  -0.000429  -0.001126
    10  H   -0.004826   0.000798   0.015149   0.592151  -0.023775  -0.070939
    11  H    0.000071  -0.000043  -0.000429  -0.023775   0.507472   0.017506
    12  Br   0.019467  -0.000626  -0.001126  -0.070939   0.017506  35.088537
 Mulliken charges:
               1
     1  C   -0.609736
     2  H    0.235391
     3  H    0.252949
     4  C   -0.114798
     5  O   -0.322430
     6  C   -0.454689
     7  H    0.225807
     8  H    0.225870
     9  H    0.208811
    10  H    0.221545
    11  H    0.215681
    12  Br  -0.084402
 Sum of Mulliken charges =  -0.00000
 Mulliken charges with hydrogens summed into heavy atoms:
               1
     1  C    0.094286
     4  C    0.106747
     5  O   -0.322430
     6  C    0.205799
    12  Br  -0.084402
 Electronic spatial extent (au):  <R**2>=            714.6247
 Charge=              0.0000 electrons
 Dipole moment (field-independent basis, Debye):
    X=              1.4810    Y=              0.7699    Z=              1.5531  Tot=              2.2800
 Quadrupole moment (field-independent basis, Debye-Ang):
   XX=            -42.9448   YY=            -41.3768   ZZ=            -44.8048
   XY=             -2.3219   XZ=              2.3188   YZ=              0.7773
 Traceless Quadrupole moment (field-independent basis, Debye-Ang):
   XX=              0.0974   YY=              1.6654   ZZ=             -1.7627
   XY=             -2.3219   XZ=              2.3188   YZ=              0.7773
 Octapole moment (field-independent basis, Debye-Ang**2):
  XXX=            -20.5514  YYY=            -10.8573  ZZZ=             -1.0763  XYY=             -5.9063
  XXY=            -11.5237  XXZ=              1.8201  XZZ=             -7.6641  YZZ=             -2.3676
  YYZ=             -0.5597  XYZ=              0.8456
 Hexadecapole moment (field-independent basis, Debye-Ang**3):
 XXXX=           -455.5704 YYYY=           -323.6225 ZZZZ=            -81.4258 XXXY=             -1.7818
 XXXZ=              0.7242 YYYX=             11.5996 YYYZ=              1.9923 ZZZX=             -0.3275
 ZZZY=              0.2724 XXYY=           -124.0443 XXZZ=            -94.3746 YYZZ=            -65.6655
 XXYZ=              5.3315 YYXZ=             -0.9130 ZZXY=              4.7291
 N-N= 3.583369371871D+02 E-N=-7.322957445511D+03  KE= 2.764863685306D+03
 Calling FoFJK, ICntrl=      2127 FMM=F ISym2X=0 I1Cent= 0 IOpClX= 0 NMat=1 NMatS=1 NMatT=0.
 ***** Axes restored to original set *****
 -------------------------------------------------------------------
 Center     Atomic                   Forces (Hartrees/Bohr)
 Number     Number              X              Y              Z
 -------------------------------------------------------------------
      1        6          -0.042076137   -0.055071196   -0.084861622
      2        1          -0.009326462   -0.017114979   -0.004606297
      3        1          -0.009884629    0.002084472   -0.011585815
      4        6           0.080486536    0.031033868    0.095994090
      5        8          -0.005764253    0.004129263   -0.022969177
      6        6          -0.011187983   -0.010491530   -0.006289022
      7        1          -0.005338758    0.010586154    0.012172063
      8        1           0.005138975   -0.011946471    0.004875824
      9        1           0.011800948    0.009664281   -0.009546165
     10        1           0.007975814    0.019913215    0.007298878
     11        1           0.006211239   -0.003857519   -0.018335222
     12       35          -0.028035289    0.021070441    0.037852465
 -------------------------------------------------------------------
 Cartesian Forces:  Max     0.095994090 RMS     0.030966862

 GradGradGradGradGradGradGradGradGradGradGradGradGradGradGradGradGradGrad
 Berny optimization.
 FormGI is forming the generalized inverse of G from B-inverse, IUseBI=4.
 Internal  Forces:  Max     0.147653228 RMS     0.026705663
 Search for a local minimum.
 Step number   1 out of a maximum of   55
 All quantities printed in internal units (Hartrees-Bohrs-Radians)
 Mixed Optimization -- RFO/linear search
 Second derivative matrix not updated -- first step.
 ITU=  0
     Eigenvalues ---    0.01295   0.01295   0.02681   0.06264   0.07314
     Eigenvalues ---    0.07314   0.07478   0.10344   0.10344   0.13226
     Eigenvalues ---    0.16000   0.16000   0.16000   0.16000   0.16000
     Eigenvalues ---    0.16000   0.17771   0.20970   0.23485   0.25000
     Eigenvalues ---    0.37230   0.37230   0.37230   0.37230   0.37230
     Eigenvalues ---    0.37230   0.37230   0.40989   0.40989   0.53930
 RFO step:  Lambda=-7.06740188D-02 EMin= 1.29493784D-02
 Linear search not attempted -- first point.
 Maximum step size (   0.300) exceeded in Quadratic search.
    -- Step size scaled by   0.713
 Iteration  1 RMS(Cart)=  0.10536409 RMS(Int)=  0.00397993
 Iteration  2 RMS(Cart)=  0.00743604 RMS(Int)=  0.00082683
 Iteration  3 RMS(Cart)=  0.00002750 RMS(Int)=  0.00082669
 Iteration  4 RMS(Cart)=  0.00000005 RMS(Int)=  0.00082669
 Variable       Old X    -DE/DX   Delta X   Delta X   Delta X     New X
                                 (Linear)    (Quad)   (Total)
    R1        2.02201   0.01809   0.00000   0.02912   0.02912   2.05112
    R2        2.02201   0.01068   0.00000   0.01719   0.01719   2.03920
    R3        2.56096   0.14765   0.00000   0.17257   0.17257   2.73353
    R4        2.02201   0.01770   0.00000   0.02849   0.02849   2.05050
    R5        2.70231  -0.01547   0.00000  -0.02295  -0.02295   2.67936
    R6        2.02201   0.01808   0.00000   0.02909   0.02909   2.05110
    R7        3.60938   0.05062   0.00000   0.14530   0.14530   3.75468
    R8        2.70231  -0.00029   0.00000  -0.00042  -0.00042   2.70188
    R9        2.02201   0.01677   0.00000   0.02699   0.02699   2.04900
   R10        2.02201   0.01294   0.00000   0.02083   0.02083   2.04284
   R11        2.02201   0.01774   0.00000   0.02856   0.02856   2.05056
    A1        1.91063  -0.00935   0.00000  -0.02805  -0.02856   1.88208
    A2        1.91063   0.00766   0.00000   0.02330   0.02294   1.93357
    A3        1.91063  -0.00838   0.00000  -0.02750  -0.02767   1.88296
    A4        1.91063   0.01218   0.00000   0.03843   0.03792   1.94855
    A5        1.91063  -0.00908   0.00000  -0.02730  -0.02776   1.88287
    A6        1.91063   0.00697   0.00000   0.02113   0.02080   1.93143
    A7        2.09942  -0.05106   0.00000  -0.11862  -0.11710   1.98232
    A8        1.86960   0.02116   0.00000   0.06057   0.05931   1.92891
    A9        1.86960   0.02877   0.00000   0.07173   0.07103   1.94063
   A10        1.86960   0.00953   0.00000   0.01119   0.01257   1.88217
   A11        1.86960   0.00780   0.00000   0.01545   0.01755   1.88715
   A12        1.87616  -0.01482   0.00000  -0.03766  -0.04036   1.83580
   A13        1.91063   0.02341   0.00000   0.05204   0.05204   1.96267
   A14        1.91063   0.00486   0.00000   0.01588   0.01577   1.92640
   A15        1.91063  -0.00998   0.00000  -0.03261  -0.03258   1.87806
   A16        1.91063   0.00541   0.00000   0.01766   0.01756   1.92819
   A17        1.91063   0.00023   0.00000  -0.00114  -0.00112   1.90952
   A18        1.91063  -0.00071   0.00000   0.00136   0.00113   1.91176
   A19        1.91063   0.00017   0.00000  -0.00115  -0.00111   1.90952
    D1        0.52360   0.00289   0.00000   0.01722   0.01697   0.54057
    D2        2.66084  -0.00286   0.00000  -0.00099  -0.00231   2.65852
    D3       -1.61364   0.00424   0.00000   0.01967   0.02097  -1.59267
    D4        2.61799   0.00358   0.00000   0.02066   0.02052   2.63851
    D5       -1.52795  -0.00216   0.00000   0.00246   0.00124  -1.52672
    D6        0.48076   0.00493   0.00000   0.02312   0.02452   0.50527
    D7       -1.57080   0.00419   0.00000   0.02369   0.02362  -1.54718
    D8        0.56644  -0.00155   0.00000   0.00549   0.00433   0.57077
    D9        2.57515   0.00554   0.00000   0.02615   0.02762   2.60277
   D10        2.69874  -0.00232   0.00000  -0.00080  -0.00067   2.69807
   D11        0.56150  -0.00221   0.00000  -0.00651  -0.00731   0.55419
   D12       -1.44720   0.00649   0.00000   0.02400   0.02468  -1.42253
   D13        1.04720   0.00275   0.00000   0.01124   0.01144   1.05864
   D14        3.14159  -0.00009   0.00000  -0.00040  -0.00039   3.14120
   D15       -1.04720  -0.00267   0.00000  -0.01097  -0.01119  -1.05838
         Item               Value     Threshold  Converged?
 Maximum Force            0.147653     0.000450     NO 
 RMS     Force            0.026706     0.000300     NO 
 Maximum Displacement     0.244371     0.001800     NO 
 RMS     Displacement     0.107734     0.001200     NO 
 Predicted change in Energy=-3.575481D-02
 GradGradGradGradGradGradGradGradGradGradGradGradGradGradGradGradGradGrad

                          Input orientation:                          
 ---------------------------------------------------------------------
 Center     Atomic      Atomic             Coordinates (Angstroms)
 Number     Number       Type             X           Y           Z
 ---------------------------------------------------------------------
      1          6           0       -2.909523   -1.087996    0.238152
      2          1           0       -3.065627   -2.154355    0.367074
      3          1           0       -3.869559   -0.634279    0.046009
      4          6           0       -2.273814   -0.517423    1.405520
      5          8           0       -1.409461   -1.418102    2.077818
      6          6           0       -0.388930   -0.744956    2.819202
      7          1           0       -0.830932   -0.106518    3.575973
      8          1           0        0.219941   -1.499727    3.296916
      9          1           0        0.230067   -0.148112    2.157320
     10          1           0       -1.694212    0.358863    1.133004
     11          1           0       -2.291581   -0.945707   -0.642353
     12         35           0       -3.622210    0.135711    2.710499
 ---------------------------------------------------------------------
                    Distance matrix (angstroms):
                    1          2          3          4          5
     1  C    0.000000
     2  H    1.085407   0.000000
     3  H    1.079096   1.749291   0.000000
     4  C    1.446522   2.094011   2.099602   0.000000
     5  O    2.396566   2.492309   3.285531   1.417856   0.000000
     6  C    3.623933   3.894104   4.451700   2.367078   1.429776
     7  H    4.052763   4.414129   4.687476   2.638488   2.073503
     8  H    4.395350   4.450558   5.295414   3.280414   2.036617
     9  H    3.797843   4.253421   4.636909   2.640268   2.075390
    10  H    2.090728   2.963730   2.626790   1.085394   2.032575
    11  H    1.085075   1.754685   1.749527   2.092254   2.898384
    12  Br   2.849190   3.323527   2.784524   1.986889   2.776847
                    6          7          8          9         10
     6  C    0.000000
     7  H    1.084283   0.000000
     8  H    1.081025   1.767268   0.000000
     9  H    1.085112   1.772011   1.767949   0.000000
    10  H    2.401133   2.632476   3.435237   2.238101   0.000000
    11  H    3.955092   4.542247   4.704522   3.851369   2.282684
    12  Br   3.352833   2.932397   4.216713   3.902127   2.501092
                   11         12
    11  H    0.000000
    12  Br   3.765854   0.000000
 Stoichiometry    C3H7BrO
 Framework group  C1[X(C3H7BrO)]
 Deg. of freedom    30
 Full point group                 C1      NOp   1
 Largest Abelian subgroup         C1      NOp   1
 Largest concise Abelian subgroup C1      NOp   1
                         Standard orientation:                         
 ---------------------------------------------------------------------
 Center     Atomic      Atomic             Coordinates (Angstroms)
 Number     Number       Type             X           Y           Z
 ---------------------------------------------------------------------
      1          6           0        0.430974    2.033067    0.005612
      2          1           0        0.676544    2.249219   -1.029319
      3          1           0       -0.576321    2.376098    0.184868
      4          6           0        0.570518    0.620063    0.281975
      5          8           0        1.574679   -0.013021   -0.493384
      6          6           0        2.101391   -1.179987    0.143030
      7          1           0        1.316134   -1.910810    0.300950
      8          1           0        2.854302   -1.597341   -0.510847
      9          1           0        2.553595   -0.921802    1.095038
     10          1           0        0.807596    0.458754    1.328805
     11          1           0        1.097607    2.613893    0.634603
     12         35           0       -1.141263   -0.342934   -0.018306
 ---------------------------------------------------------------------
 Rotational constants (GHZ):           4.4268757           2.2089902           1.5639195
 Standard basis: 6-311G(d) (5D, 7F)
 There are   144 symmetry adapted cartesian basis functions of A   symmetry.
 There are   137 symmetry adapted basis functions of A   symmetry.
   137 basis functions,   253 primitive gaussians,   144 cartesian basis functions
    34 alpha electrons       34 beta electrons
       nuclear repulsion energy       346.8912677695 Hartrees.
 NAtoms=   12 NActive=   12 NUniq=   12 SFac= 1.00D+00 NAtFMM=   60 NAOKFM=F Big=F
 Integral buffers will be    131072 words long.
 Raffenetti 2 integral format.
 Two-electron integral symmetry is turned on.
 One-electron integrals computed using PRISM.
 NBasis=   137 RedAO= T EigKep=  2.63D-03  NBF=   137
 NBsUse=   137 1.00D-06 EigRej= -1.00D+00 NBFU=   137
 Initial guess from the checkpoint file:  "/home/kimariyb/g16/scratch/Gau-148907.chk"
 B after Tr=     0.000000   -0.000000   -0.000000
         Rot=    0.998843   -0.004866    0.000163    0.047852 Ang=  -5.51 deg.
 ExpMin= 1.03D-01 ExpMax= 4.40D+05 ExpMxC= 1.51D+04 IAcc=2 IRadAn=         4 AccDes= 0.00D+00
 Harris functional with IExCor=  402 and IRadAn=       4 diagonalized for initial guess.
 HarFok:  IExCor=  402 AccDes= 0.00D+00 IRadAn=         4 IDoV= 1 UseB2=F ITyADJ=14
 ICtDFT=  3500011 ScaDFX=  1.000000  1.000000  1.000000  1.000000
 FoFCou: FMM=F IPFlag=           0 FMFlag=      100000 FMFlg1=           0
         NFxFlg=           0 DoJE=T BraDBF=F KetDBF=T FulRan=T
         wScrn=  0.000000 ICntrl=       500 IOpCl=  0 I1Cent=   200000004 NGrid=           0
         NMat0=    1 NMatS0=      1 NMatT0=    0 NMatD0=    1 NMtDS0=    0 NMtDT0=    0
 Petite list used in FoFCou.
 Keep R1 ints in memory in canonical form, NReq=54395343.
 Requested convergence on RMS density matrix=1.00D-08 within 128 cycles.
 Requested convergence on MAX density matrix=1.00D-06.
 Requested convergence on             energy=1.00D-06.
 No special actions if energy rises.
 Integral accuracy reduced to 1.0D-05 until final iterations.
 Initial convergence to 1.0D-05 achieved.  Increase integral accuracy.
 SCF Done:  E(RB3LYP) =  -2767.93632210     A.U. after   13 cycles
            NFock= 13  Conv=0.24D-08     -V/T= 2.0013
 Calling FoFJK, ICntrl=      2127 FMM=F ISym2X=0 I1Cent= 0 IOpClX= 0 NMat=1 NMatS=1 NMatT=0.
 ***** Axes restored to original set *****
 -------------------------------------------------------------------
 Center     Atomic                   Forces (Hartrees/Bohr)
 Number     Number              X              Y              Z
 -------------------------------------------------------------------
      1        6          -0.015883326   -0.023564341   -0.025238693
      2        1          -0.002148619   -0.004718747    0.001179831
      3        1          -0.005358711    0.003385946   -0.003305832
      4        6           0.041405826    0.003346453    0.035618089
      5        8          -0.007178581    0.009202613   -0.015583875
      6        6          -0.007357588   -0.005128032   -0.002740944
      7        1          -0.001954452    0.003815970    0.005197203
      8        1           0.001675600   -0.005123774    0.001306110
      9        1           0.004730603    0.004032088   -0.003878312
     10        1          -0.002099517    0.008635569    0.002916624
     11        1           0.004717771   -0.000971937   -0.004446881
     12       35          -0.010549006    0.007088192    0.008976680
 -------------------------------------------------------------------
 Cartesian Forces:  Max     0.041405826 RMS     0.012346446

 GradGradGradGradGradGradGradGradGradGradGradGradGradGradGradGradGradGrad
 Berny optimization.
 Using GEDIIS/GDIIS optimizer.
 FormGI is forming the generalized inverse of G from B-inverse, IUseBI=4.
 Internal  Forces:  Max     0.044082833 RMS     0.008885124
 Search for a local minimum.
 Step number   2 out of a maximum of   55
 All quantities printed in internal units (Hartrees-Bohrs-Radians)
 Mixed Optimization -- RFO/linear search
 Update second derivatives using D2CorX and points    1    2
 DE= -3.18D-02 DEPred=-3.58D-02 R= 8.91D-01
 TightC=F SS=  1.41D+00  RLast= 3.06D-01 DXNew= 5.0454D-01 9.1814D-01
 Trust test= 8.91D-01 RLast= 3.06D-01 DXMaxT set to 5.05D-01
 ITU=  1  0
 Use linear search instead of GDIIS.
     Eigenvalues ---    0.01294   0.01295   0.02690   0.06758   0.07025
     Eigenvalues ---    0.07115   0.07488   0.10189   0.10493   0.12860
     Eigenvalues ---    0.15949   0.16000   0.16000   0.16000   0.16000
     Eigenvalues ---    0.16253   0.18537   0.20682   0.24268   0.25185
     Eigenvalues ---    0.36670   0.37230   0.37230   0.37230   0.37230
     Eigenvalues ---    0.37230   0.37430   0.40243   0.40998   0.57315
 RFO step:  Lambda=-6.34840210D-03 EMin= 1.29373646D-02
 Quartic linear search produced a step of  0.66495.
 Iteration  1 RMS(Cart)=  0.11875118 RMS(Int)=  0.00787872
 Iteration  2 RMS(Cart)=  0.01360482 RMS(Int)=  0.00084223
 Iteration  3 RMS(Cart)=  0.00011046 RMS(Int)=  0.00083987
 Iteration  4 RMS(Cart)=  0.00000004 RMS(Int)=  0.00083987
 Variable       Old X    -DE/DX   Delta X   Delta X   Delta X     New X
                                 (Linear)    (Quad)   (Total)
    R1        2.05112   0.00509   0.01936  -0.00113   0.01823   2.06935
    R2        2.03920   0.00678   0.01143   0.01591   0.02733   2.06653
    R3        2.73353   0.04408   0.11475  -0.00723   0.10752   2.84105
    R4        2.05050   0.00617   0.01894   0.00412   0.02306   2.07356
    R5        2.67936  -0.01791  -0.01526  -0.05291  -0.06817   2.61119
    R6        2.05110   0.00512   0.01934  -0.00097   0.01838   2.06947
    R7        3.75468   0.01538   0.09662   0.02909   0.12571   3.88039
    R8        2.70188  -0.00327  -0.00028  -0.01269  -0.01297   2.68891
    R9        2.04900   0.00667   0.01795   0.00754   0.02548   2.07448
   R10        2.04284   0.00510   0.01385   0.00559   0.01945   2.06229
   R11        2.05056   0.00728   0.01899   0.00895   0.02794   2.07851
    A1        1.88208  -0.00063  -0.01899   0.01840  -0.00092   1.88115
    A2        1.93357  -0.00023   0.01525  -0.02025  -0.00528   1.92829
    A3        1.88296   0.00000  -0.01840   0.01547  -0.00313   1.87983
    A4        1.94855   0.00205   0.02521  -0.00473   0.02017   1.96872
    A5        1.88287  -0.00042  -0.01846   0.01897   0.00026   1.88313
    A6        1.93143  -0.00083   0.01383  -0.02516  -0.01157   1.91986
    A7        1.98232  -0.01990  -0.07787  -0.04411  -0.12010   1.86222
    A8        1.92891   0.00843   0.03944   0.03485   0.07537   2.00428
    A9        1.94063   0.00231   0.04723  -0.05308  -0.00644   1.93419
   A10        1.88217   0.00653   0.00836   0.05043   0.06173   1.94390
   A11        1.88715   0.00952   0.01167   0.04293   0.05362   1.94077
   A12        1.83580  -0.00567  -0.02684  -0.02680  -0.05598   1.77982
   A13        1.96267   0.00927   0.03460   0.01934   0.05394   2.01662
   A14        1.92640   0.00178   0.01049   0.00814   0.01836   1.94477
   A15        1.87806  -0.00411  -0.02166  -0.02079  -0.04241   1.83564
   A16        1.92819   0.00168   0.01168   0.00573   0.01715   1.94534
   A17        1.90952   0.00033  -0.00074   0.00014  -0.00057   1.90895
   A18        1.91176  -0.00012   0.00075   0.00582   0.00607   1.91784
   A19        1.90952   0.00037  -0.00074   0.00047  -0.00023   1.90929
    D1        0.54057   0.00049   0.01128   0.02407   0.03641   0.57698
    D2        2.65852   0.00118  -0.00154   0.08425   0.08144   2.73996
    D3       -1.59267   0.00082   0.01394   0.04033   0.05439  -1.53828
    D4        2.63851   0.00090   0.01364   0.03046   0.04521   2.68373
    D5       -1.52672   0.00159   0.00082   0.09063   0.09024  -1.43648
    D6        0.50527   0.00123   0.01630   0.04671   0.06320   0.56847
    D7       -1.54718   0.00118   0.01570   0.03424   0.05104  -1.49614
    D8        0.57077   0.00187   0.00288   0.09442   0.09607   0.66685
    D9        2.60277   0.00151   0.01836   0.05050   0.06903   2.67179
   D10        2.69807   0.00333  -0.00045   0.15724   0.15721   2.85528
   D11        0.55419   0.00104  -0.00486   0.10537   0.10129   0.65548
   D12       -1.42253  -0.00028   0.01641   0.09047   0.10568  -1.31684
   D13        1.05864   0.00125   0.00761   0.02364   0.03166   1.09030
   D14        3.14120   0.00019  -0.00026   0.01590   0.01564  -3.12634
   D15       -1.05838  -0.00089  -0.00744   0.00715  -0.00071  -1.05909
         Item               Value     Threshold  Converged?
 Maximum Force            0.044083     0.000450     NO 
 RMS     Force            0.008885     0.000300     NO 
 Maximum Displacement     0.284913     0.001800     NO 
 RMS     Displacement     0.126270     0.001200     NO 
 Predicted change in Energy=-4.915154D-03
 GradGradGradGradGradGradGradGradGradGradGradGradGradGradGradGradGradGrad

                          Input orientation:                          
 ---------------------------------------------------------------------
 Center     Atomic      Atomic             Coordinates (Angstroms)
 Number     Number       Type             X           Y           Z
 ---------------------------------------------------------------------
      1          6           0       -2.912655   -1.131668    0.239417
      2          1           0       -3.041658   -2.193229    0.475189
      3          1           0       -3.897294   -0.720774   -0.000427
      4          6           0       -2.245288   -0.416513    1.381104
      5          8           0       -1.378324   -1.321073    1.963737
      6          6           0       -0.390290   -0.759758    2.820119
      7          1           0       -0.846308   -0.255005    3.681726
      8          1           0        0.200909   -1.608212    3.168797
      9          1           0        0.261186   -0.058925    2.277727
     10          1           0       -1.729960    0.509632    1.105466
     11          1           0       -2.290128   -1.063174   -0.661578
     12         35           0       -3.636029    0.256095    2.733857
 ---------------------------------------------------------------------
                    Distance matrix (angstroms):
                    1          2          3          4          5
     1  C    0.000000
     2  H    1.095053   0.000000
     3  H    1.093560   1.768176   0.000000
     4  C    1.503421   2.147465   2.174931   0.000000
     5  O    2.315885   2.396478   3.250155   1.381780   0.000000
     6  C    3.627763   3.818807   4.500675   2.372678   1.422911
     7  H    4.109479   4.342597   4.804551   2.697423   2.090701
     8  H    4.301469   4.255820   5.256120   3.255745   2.007137
     9  H    3.921575   4.325872   4.787586   2.685929   2.092750
    10  H    2.200608   3.069733   2.726580   1.095119   2.052257
    11  H    1.097280   1.770328   1.771254   2.143066   2.791089
    12  Br   2.944722   3.384383   2.915277   2.053412   2.859681
                    6          7          8          9         10
     6  C    0.000000
     7  H    1.097768   0.000000
     8  H    1.091315   1.786317   0.000000
     9  H    1.099899   1.798945   1.788277   0.000000
    10  H    2.519147   2.828892   3.531410   2.379519   0.000000
    11  H    3.977897   4.647800   4.601533   4.019606   2.431040
    12  Br   3.402090   2.990355   4.287996   3.936442   2.519730
                   11         12
    11  H    0.000000
    12  Br   3.883413   0.000000
 Stoichiometry    C3H7BrO
 Framework group  C1[X(C3H7BrO)]
 Deg. of freedom    30
 Full point group                 C1      NOp   1
 Largest Abelian subgroup         C1      NOp   1
 Largest concise Abelian subgroup C1      NOp   1
                         Standard orientation:                         
 ---------------------------------------------------------------------
 Center     Atomic      Atomic             Coordinates (Angstroms)
 Number     Number       Type             X           Y           Z
 ---------------------------------------------------------------------
      1          6           0        0.623095    2.024383   -0.033799
      2          1           0        0.903036    2.141797   -1.085934
      3          1           0       -0.352704    2.497537    0.106967
      4          6           0        0.627260    0.571504    0.352723
      5          8           0        1.626572   -0.032915   -0.385767
      6          6           0        2.044767   -1.311321    0.078418
      7          1           0        1.224791   -2.040153    0.039200
      8          1           0        2.836039   -1.619353   -0.607127
      9          1           0        2.447814   -1.256303    1.100330
     10          1           0        0.751604    0.380851    1.423926
     11          1           0        1.355228    2.575415    0.569831
     12         35           0       -1.198546   -0.289254   -0.024146
 ---------------------------------------------------------------------
 Rotational constants (GHZ):           4.3949149           2.0967236           1.4962483
 Standard basis: 6-311G(d) (5D, 7F)
 There are   144 symmetry adapted cartesian basis functions of A   symmetry.
 There are   137 symmetry adapted basis functions of A   symmetry.
   137 basis functions,   253 primitive gaussians,   144 cartesian basis functions
    34 alpha electrons       34 beta electrons
       nuclear repulsion energy       340.8302429366 Hartrees.
 NAtoms=   12 NActive=   12 NUniq=   12 SFac= 1.00D+00 NAtFMM=   60 NAOKFM=F Big=F
 Integral buffers will be    131072 words long.
 Raffenetti 2 integral format.
 Two-electron integral symmetry is turned on.
 One-electron integrals computed using PRISM.
 NBasis=   137 RedAO= T EigKep=  3.31D-03  NBF=   137
 NBsUse=   137 1.00D-06 EigRej= -1.00D+00 NBFU=   137
 Initial guess from the checkpoint file:  "/home/kimariyb/g16/scratch/Gau-148907.chk"
 B after Tr=    -0.000000    0.000000   -0.000000
         Rot=    0.999496   -0.007273    0.002702    0.030788 Ang=  -3.64 deg.
 ExpMin= 1.03D-01 ExpMax= 4.40D+05 ExpMxC= 1.51D+04 IAcc=2 IRadAn=         4 AccDes= 0.00D+00
 Harris functional with IExCor=  402 and IRadAn=       4 diagonalized for initial guess.
 HarFok:  IExCor=  402 AccDes= 0.00D+00 IRadAn=         4 IDoV= 1 UseB2=F ITyADJ=14
 ICtDFT=  3500011 ScaDFX=  1.000000  1.000000  1.000000  1.000000
 FoFCou: FMM=F IPFlag=           0 FMFlag=      100000 FMFlg1=           0
         NFxFlg=           0 DoJE=T BraDBF=F KetDBF=T FulRan=T
         wScrn=  0.000000 ICntrl=       500 IOpCl=  0 I1Cent=   200000004 NGrid=           0
         NMat0=    1 NMatS0=      1 NMatT0=    0 NMatD0=    1 NMtDS0=    0 NMtDT0=    0
 Petite list used in FoFCou.
 Keep R1 ints in memory in canonical form, NReq=54395343.
 Requested convergence on RMS density matrix=1.00D-08 within 128 cycles.
 Requested convergence on MAX density matrix=1.00D-06.
 Requested convergence on             energy=1.00D-06.
 No special actions if energy rises.
 Integral accuracy reduced to 1.0D-05 until final iterations.
 Initial convergence to 1.0D-05 achieved.  Increase integral accuracy.
 SCF Done:  E(RB3LYP) =  -2767.94368065     A.U. after   12 cycles
            NFock= 12  Conv=0.63D-08     -V/T= 2.0014
 Calling FoFJK, ICntrl=      2127 FMM=F ISym2X=0 I1Cent= 0 IOpClX= 0 NMat=1 NMatS=1 NMatT=0.
 ***** Axes restored to original set *****
 -------------------------------------------------------------------
 Center     Atomic                   Forces (Hartrees/Bohr)
 Number     Number              X              Y              Z
 -------------------------------------------------------------------
      1        6          -0.011102453   -0.000742625   -0.010241708
      2        1           0.000608955    0.003619174    0.002399493
      3        1           0.003223767    0.000987668    0.000006989
      4        6           0.011969802   -0.010687482    0.003153729
      5        8          -0.002019399    0.010208518   -0.000261682
      6        6           0.002744452   -0.003024282    0.003195894
      7        1           0.000184387   -0.000903837   -0.002752221
      8        1           0.000516349    0.002520059    0.000381730
      9        1          -0.002226770   -0.001006345    0.000763744
     10        1          -0.003828902   -0.000693045    0.000284449
     11        1           0.000553516   -0.000423951    0.002500753
     12       35          -0.000623704    0.000146148    0.000568830
 -------------------------------------------------------------------
 Cartesian Forces:  Max     0.011969802 RMS     0.004429820

 GradGradGradGradGradGradGradGradGradGradGradGradGradGradGradGradGradGrad
 Berny optimization.
 Using GEDIIS/GDIIS optimizer.
 FormGI is forming the generalized inverse of G from B-inverse, IUseBI=4.
 Internal  Forces:  Max     0.010798676 RMS     0.002745196
 Search for a local minimum.
 Step number   3 out of a maximum of   55
 All quantities printed in internal units (Hartrees-Bohrs-Radians)
 Mixed Optimization -- RFO/linear search
 Update second derivatives using D2CorX and points    2    3
 DE= -7.36D-03 DEPred=-4.92D-03 R= 1.50D+00
 TightC=F SS=  1.41D+00  RLast= 4.01D-01 DXNew= 8.4853D-01 1.2035D+00
 Trust test= 1.50D+00 RLast= 4.01D-01 DXMaxT set to 8.49D-01
 ITU=  1  1  0
 Use linear search instead of GDIIS.
     Eigenvalues ---    0.01251   0.01295   0.02406   0.06642   0.06929
     Eigenvalues ---    0.07178   0.08265   0.10054   0.10687   0.12322
     Eigenvalues ---    0.15254   0.16000   0.16000   0.16000   0.16108
     Eigenvalues ---    0.16144   0.17227   0.20562   0.24508   0.26066
     Eigenvalues ---    0.36496   0.37230   0.37230   0.37230   0.37230
     Eigenvalues ---    0.37298   0.37416   0.39399   0.41062   0.52560
 RFO step:  Lambda=-1.79694132D-03 EMin= 1.25070056D-02
 Quartic linear search produced a step of -0.02808.
 Iteration  1 RMS(Cart)=  0.04879492 RMS(Int)=  0.00125363
 Iteration  2 RMS(Cart)=  0.00163257 RMS(Int)=  0.00009483
 Iteration  3 RMS(Cart)=  0.00000114 RMS(Int)=  0.00009482
 Iteration  4 RMS(Cart)=  0.00000000 RMS(Int)=  0.00009482
 Variable       Old X    -DE/DX   Delta X   Delta X   Delta X     New X
                                 (Linear)    (Quad)   (Total)
    R1        2.06935  -0.00306  -0.00051  -0.00518  -0.00569   2.06366
    R2        2.06653  -0.00253  -0.00077  -0.00335  -0.00411   2.06242
    R3        2.84105   0.00540  -0.00302   0.02538   0.02236   2.86341
    R4        2.07356  -0.00177  -0.00065  -0.00139  -0.00204   2.07152
    R5        2.61119  -0.00505   0.00191  -0.01912  -0.01720   2.59399
    R6        2.06947  -0.00246  -0.00052  -0.00361  -0.00412   2.06535
    R7        3.88039   0.00084  -0.00353   0.02244   0.01891   3.89930
    R8        2.68891   0.00085   0.00036   0.00074   0.00110   2.69002
    R9        2.07448  -0.00265  -0.00072  -0.00350  -0.00421   2.07027
   R10        2.06229  -0.00156  -0.00055  -0.00146  -0.00201   2.06028
   R11        2.07851  -0.00234  -0.00078  -0.00240  -0.00318   2.07533
    A1        1.88115   0.00233   0.00003   0.01337   0.01341   1.89456
    A2        1.92829  -0.00367   0.00015  -0.02196  -0.02188   1.90641
    A3        1.87983   0.00218   0.00009   0.00961   0.00955   1.88938
    A4        1.96872  -0.00029  -0.00057   0.00273   0.00217   1.97089
    A5        1.88313   0.00103  -0.00001   0.00593   0.00593   1.88906
    A6        1.91986  -0.00128   0.00032  -0.00831  -0.00805   1.91181
    A7        1.86222   0.01080   0.00337   0.03539   0.03861   1.90083
    A8        2.00428  -0.00334  -0.00212  -0.00641  -0.00885   1.99543
    A9        1.93419  -0.00326   0.00018  -0.01097  -0.01097   1.92322
   A10        1.94390  -0.00300  -0.00173   0.00129  -0.00060   1.94330
   A11        1.94077  -0.00300  -0.00151  -0.00154  -0.00298   1.93779
   A12        1.77982   0.00083   0.00157  -0.02089  -0.01952   1.76031
   A13        2.01662   0.00103  -0.00151   0.01103   0.00951   2.02613
   A14        1.94477  -0.00208  -0.00052  -0.01167  -0.01226   1.93251
   A15        1.83564   0.00416   0.00119   0.02256   0.02375   1.85940
   A16        1.94534  -0.00157  -0.00048  -0.00878  -0.00934   1.93600
   A17        1.90895   0.00006   0.00002   0.00352   0.00354   1.91249
   A18        1.91784  -0.00011  -0.00017  -0.00563  -0.00594   1.91190
   A19        1.90929  -0.00025   0.00001   0.00153   0.00153   1.91082
    D1        0.57698   0.00046  -0.00102   0.03221   0.03117   0.60815
    D2        2.73996   0.00254  -0.00229   0.05644   0.05415   2.79412
    D3       -1.53828  -0.00076  -0.00153   0.01830   0.01691  -1.52137
    D4        2.68373   0.00064  -0.00127   0.03562   0.03430   2.71802
    D5       -1.43648   0.00272  -0.00253   0.05985   0.05728  -1.37920
    D6        0.56847  -0.00058  -0.00177   0.02171   0.02003   0.58850
    D7       -1.49614   0.00085  -0.00143   0.03917   0.03764  -1.45850
    D8        0.66685   0.00294  -0.00270   0.06340   0.06062   0.72747
    D9        2.67179  -0.00037  -0.00194   0.02526   0.02337   2.69516
   D10        2.85528   0.00097  -0.00441   0.07074   0.06637   2.92165
   D11        0.65548  -0.00044  -0.00284   0.05311   0.05011   0.70559
   D12       -1.31684   0.00208  -0.00297   0.07883   0.07598  -1.24086
   D13        1.09030  -0.00113  -0.00089   0.00881   0.00803   1.09834
   D14       -3.12634   0.00032  -0.00044   0.02031   0.01985  -3.10649
   D15       -1.05909   0.00167   0.00002   0.03095   0.03087  -1.02822
         Item               Value     Threshold  Converged?
 Maximum Force            0.010799     0.000450     NO 
 RMS     Force            0.002745     0.000300     NO 
 Maximum Displacement     0.104251     0.001800     NO 
 RMS     Displacement     0.048618     0.001200     NO 
 Predicted change in Energy=-9.426145D-04
 GradGradGradGradGradGradGradGradGradGradGradGradGradGradGradGradGradGrad

                          Input orientation:                          
 ---------------------------------------------------------------------
 Center     Atomic      Atomic             Coordinates (Angstroms)
 Number     Number       Type             X           Y           Z
 ---------------------------------------------------------------------
      1          6           0       -2.935192   -1.136193    0.223325
      2          1           0       -3.091932   -2.184591    0.485716
      3          1           0       -3.903007   -0.687549   -0.007264
      4          6           0       -2.217489   -0.438895    1.361162
      5          8           0       -1.339335   -1.320858    1.940154
      6          6           0       -0.388133   -0.758816    2.837741
      7          1           0       -0.889427   -0.305476    3.699943
      8          1           0        0.244827   -1.580526    3.173608
      9          1           0        0.229136   -0.003757    2.332822
     10          1           0       -1.717945    0.490478    1.076154
     11          1           0       -2.315155   -1.097287   -0.679835
     12         35           0       -3.582188    0.260866    2.741607
 ---------------------------------------------------------------------
                    Distance matrix (angstroms):
                    1          2          3          4          5
     1  C    0.000000
     2  H    1.092041   0.000000
     3  H    1.091384   1.772570   0.000000
     4  C    1.515253   2.139745   2.185266   0.000000
     5  O    2.351247   2.435779   3.281148   1.372678   0.000000
     6  C    3.669481   3.856862   4.522552   2.372589   1.423495
     7  H    4.118509   4.325894   4.792810   2.692851   2.080931
     8  H    4.360518   4.327080   5.302818   3.263631   2.024452
     9  H    3.968042   4.381476   4.797726   2.668229   2.085436
    10  H    2.203422   3.064711   2.708512   1.092936   2.042248
    11  H    1.096202   1.773167   1.772431   2.146785   2.804737
    12  Br   2.951630   3.362983   2.925527   2.063419   2.859120
                    6          7          8          9         10
     6  C    0.000000
     7  H    1.095540   0.000000
     8  H    1.090254   1.785865   0.000000
     9  H    1.098215   1.791994   1.787000   0.000000
    10  H    2.536202   2.864307   3.541305   2.369516   0.000000
    11  H    4.025085   4.673555   4.651457   4.092105   2.441547
    12  Br   3.354249   2.913780   4.268887   3.842307   2.510350
                   11         12
    11  H    0.000000
    12  Br   3.893098   0.000000
 Stoichiometry    C3H7BrO
 Framework group  C1[X(C3H7BrO)]
 Deg. of freedom    30
 Full point group                 C1      NOp   1
 Largest Abelian subgroup         C1      NOp   1
 Largest concise Abelian subgroup C1      NOp   1
                         Standard orientation:                         
 ---------------------------------------------------------------------
 Center     Atomic      Atomic             Coordinates (Angstroms)
 Number     Number       Type             X           Y           Z
 ---------------------------------------------------------------------
      1          6           0        0.604775    2.053895   -0.039671
      2          1           0        0.855632    2.154776   -1.097710
      3          1           0       -0.370564    2.512844    0.131206
      4          6           0        0.643123    0.588733    0.344807
      5          8           0        1.640821   -0.031530   -0.365204
      6          6           0        1.999811   -1.338275    0.070552
      7          1           0        1.154896   -2.027705   -0.034388
      8          1           0        2.819436   -1.664728   -0.569993
      9          1           0        2.335213   -1.324697    1.116209
     10          1           0        0.746503    0.407286    1.417607
     11          1           0        1.350581    2.605772    0.544164
     12         35           0       -1.185843   -0.292498   -0.023988
 ---------------------------------------------------------------------
 Rotational constants (GHZ):           4.2870664           2.1406662           1.5023255
 Standard basis: 6-311G(d) (5D, 7F)
 There are   144 symmetry adapted cartesian basis functions of A   symmetry.
 There are   137 symmetry adapted basis functions of A   symmetry.
   137 basis functions,   253 primitive gaussians,   144 cartesian basis functions
    34 alpha electrons       34 beta electrons
       nuclear repulsion energy       341.0099412593 Hartrees.
 NAtoms=   12 NActive=   12 NUniq=   12 SFac= 1.00D+00 NAtFMM=   60 NAOKFM=F Big=F
 Integral buffers will be    131072 words long.
 Raffenetti 2 integral format.
 Two-electron integral symmetry is turned on.
 One-electron integrals computed using PRISM.
 NBasis=   137 RedAO= T EigKep=  3.40D-03  NBF=   137
 NBsUse=   137 1.00D-06 EigRej= -1.00D+00 NBFU=   137
 Initial guess from the checkpoint file:  "/home/kimariyb/g16/scratch/Gau-148907.chk"
 B after Tr=     0.000000   -0.000000    0.000000
         Rot=    0.999999    0.000124    0.000889    0.001130 Ang=   0.17 deg.
 ExpMin= 1.03D-01 ExpMax= 4.40D+05 ExpMxC= 1.51D+04 IAcc=2 IRadAn=         4 AccDes= 0.00D+00
 Harris functional with IExCor=  402 and IRadAn=       4 diagonalized for initial guess.
 HarFok:  IExCor=  402 AccDes= 0.00D+00 IRadAn=         4 IDoV= 1 UseB2=F ITyADJ=14
 ICtDFT=  3500011 ScaDFX=  1.000000  1.000000  1.000000  1.000000
 FoFCou: FMM=F IPFlag=           0 FMFlag=      100000 FMFlg1=           0
         NFxFlg=           0 DoJE=T BraDBF=F KetDBF=T FulRan=T
         wScrn=  0.000000 ICntrl=       500 IOpCl=  0 I1Cent=   200000004 NGrid=           0
         NMat0=    1 NMatS0=      1 NMatT0=    0 NMatD0=    1 NMtDS0=    0 NMtDT0=    0
 Petite list used in FoFCou.
 Keep R1 ints in memory in canonical form, NReq=54395343.
 Requested convergence on RMS density matrix=1.00D-08 within 128 cycles.
 Requested convergence on MAX density matrix=1.00D-06.
 Requested convergence on             energy=1.00D-06.
 No special actions if energy rises.
 Integral accuracy reduced to 1.0D-05 until final iterations.
 Initial convergence to 1.0D-05 achieved.  Increase integral accuracy.
 SCF Done:  E(RB3LYP) =  -2767.94481587     A.U. after   11 cycles
            NFock= 11  Conv=0.85D-08     -V/T= 2.0014
 Calling FoFJK, ICntrl=      2127 FMM=F ISym2X=0 I1Cent= 0 IOpClX= 0 NMat=1 NMatS=1 NMatT=0.
 ***** Axes restored to original set *****
 -------------------------------------------------------------------
 Center     Atomic                   Forces (Hartrees/Bohr)
 Number     Number              X              Y              Z
 -------------------------------------------------------------------
      1        6          -0.002239748    0.000043515   -0.001272913
      2        1          -0.000604713    0.001165837    0.000713657
      3        1           0.002502895    0.001212084    0.000780378
      4        6           0.006523089   -0.003988735   -0.000045822
      5        8          -0.002546503    0.001755182   -0.001447525
      6        6           0.001275402    0.000978255    0.001126984
      7        1           0.000426035   -0.000605283   -0.001368551
      8        1          -0.000836179    0.000699973   -0.000896986
      9        1          -0.000820045   -0.000574100    0.000593661
     10        1          -0.002586146    0.000548375   -0.000455809
     11        1           0.000543027   -0.000885750    0.001783065
     12       35          -0.001637116   -0.000349352    0.000489861
 -------------------------------------------------------------------
 Cartesian Forces:  Max     0.006523089 RMS     0.001759571

 GradGradGradGradGradGradGradGradGradGradGradGradGradGradGradGradGradGrad
 Berny optimization.
 Using GEDIIS/GDIIS optimizer.
 FormGI is forming the generalized inverse of G from B-inverse, IUseBI=4.
 Internal  Forces:  Max     0.003888759 RMS     0.001199180
 Search for a local minimum.
 Step number   4 out of a maximum of   55
 All quantities printed in internal units (Hartrees-Bohrs-Radians)
 Mixed Optimization -- RFO/linear search
 Update second derivatives using D2CorX and points    2    3    4
 DE= -1.14D-03 DEPred=-9.43D-04 R= 1.20D+00
 TightC=F SS=  1.41D+00  RLast= 1.84D-01 DXNew= 1.4270D+00 5.5252D-01
 Trust test= 1.20D+00 RLast= 1.84D-01 DXMaxT set to 8.49D-01
 ITU=  1  1  1  0
 Use linear search instead of GDIIS.
     Eigenvalues ---    0.01157   0.01360   0.01783   0.06421   0.06966
     Eigenvalues ---    0.07316   0.08099   0.10168   0.10577   0.12573
     Eigenvalues ---    0.14577   0.15948   0.16000   0.16000   0.16014
     Eigenvalues ---    0.16778   0.17559   0.20812   0.24398   0.27206
     Eigenvalues ---    0.36151   0.37118   0.37230   0.37230   0.37230
     Eigenvalues ---    0.37251   0.37371   0.37722   0.41036   0.57952
 RFO step:  Lambda=-7.17418940D-04 EMin= 1.15672065D-02
 Quartic linear search produced a step of  0.34726.
 Iteration  1 RMS(Cart)=  0.03749132 RMS(Int)=  0.00097603
 Iteration  2 RMS(Cart)=  0.00102107 RMS(Int)=  0.00010181
 Iteration  3 RMS(Cart)=  0.00000057 RMS(Int)=  0.00010181
 Variable       Old X    -DE/DX   Delta X   Delta X   Delta X     New X
                                 (Linear)    (Quad)   (Total)
    R1        2.06366  -0.00086  -0.00198  -0.00169  -0.00367   2.05999
    R2        2.06242  -0.00189  -0.00143  -0.00534  -0.00677   2.05565
    R3        2.86341  -0.00231   0.00776   0.00560   0.01337   2.87678
    R4        2.07152  -0.00119  -0.00071  -0.00249  -0.00319   2.06833
    R5        2.59399  -0.00389  -0.00597  -0.01798  -0.02396   2.57003
    R6        2.06535  -0.00060  -0.00143  -0.00062  -0.00205   2.06330
    R7        3.89930   0.00129   0.00657   0.02392   0.03049   3.92978
    R8        2.69002  -0.00012   0.00038  -0.00094  -0.00056   2.68946
    R9        2.07027  -0.00152  -0.00146  -0.00377  -0.00523   2.06504
   R10        2.06028  -0.00129  -0.00070  -0.00326  -0.00396   2.05633
   R11        2.07533  -0.00113  -0.00110  -0.00209  -0.00319   2.07213
    A1        1.89456   0.00123   0.00466   0.00990   0.01450   1.90905
    A2        1.90641  -0.00016  -0.00760  -0.00122  -0.00890   1.89751
    A3        1.88938   0.00054   0.00332   0.00451   0.00773   1.89711
    A4        1.97089  -0.00220   0.00075  -0.01617  -0.01548   1.95541
    A5        1.88906   0.00141   0.00206   0.00995   0.01194   1.90099
    A6        1.91181  -0.00069  -0.00280  -0.00598  -0.00886   1.90295
    A7        1.90083   0.00104   0.01341  -0.00122   0.01214   1.91297
    A8        1.99543  -0.00119  -0.00307  -0.00617  -0.00957   1.98586
    A9        1.92322  -0.00223  -0.00381  -0.01583  -0.01981   1.90341
   A10        1.94330   0.00077  -0.00021   0.01789   0.01764   1.96094
   A11        1.93779   0.00080  -0.00103   0.00861   0.00767   1.94547
   A12        1.76031   0.00074  -0.00678  -0.00334  -0.01049   1.74981
   A13        2.02613  -0.00092   0.00330   0.00017   0.00347   2.02960
   A14        1.93251  -0.00035  -0.00426  -0.00213  -0.00643   1.92608
   A15        1.85940  -0.00062   0.00825  -0.00739   0.00086   1.86025
   A16        1.93600   0.00014  -0.00324   0.00215  -0.00113   1.93486
   A17        1.91249   0.00056   0.00123   0.00509   0.00632   1.91881
   A18        1.91190   0.00002  -0.00206  -0.00004  -0.00217   1.90973
   A19        1.91082   0.00027   0.00053   0.00231   0.00283   1.91365
    D1        0.60815   0.00065   0.01083   0.04304   0.05386   0.66201
    D2        2.79412   0.00162   0.01881   0.06118   0.07988   2.87399
    D3       -1.52137   0.00040   0.00587   0.04318   0.04920  -1.47217
    D4        2.71802   0.00066   0.01191   0.04409   0.05598   2.77400
    D5       -1.37920   0.00162   0.01989   0.06223   0.08199  -1.29721
    D6        0.58850   0.00040   0.00695   0.04423   0.05132   0.63981
    D7       -1.45850   0.00050   0.01307   0.04181   0.05486  -1.40364
    D8        0.72747   0.00146   0.02105   0.05995   0.08087   0.80834
    D9        2.69516   0.00024   0.00812   0.04196   0.05020   2.74536
   D10        2.92165   0.00030   0.02305  -0.00224   0.02091   2.94256
   D11        0.70559   0.00051   0.01740  -0.00627   0.01098   0.71657
   D12       -1.24086  -0.00128   0.02638  -0.01728   0.00914  -1.23172
   D13        1.09834   0.00022   0.00279   0.03001   0.03286   1.13119
   D14       -3.10649   0.00032   0.00689   0.03054   0.03742  -3.06907
   D15       -1.02822   0.00034   0.01072   0.03005   0.04072  -0.98749
         Item               Value     Threshold  Converged?
 Maximum Force            0.003889     0.000450     NO 
 RMS     Force            0.001199     0.000300     NO 
 Maximum Displacement     0.098032     0.001800     NO 
 RMS     Displacement     0.037543     0.001200     NO 
 Predicted change in Energy=-4.404217D-04
 GradGradGradGradGradGradGradGradGradGradGradGradGradGradGradGradGradGrad

                          Input orientation:                          
 ---------------------------------------------------------------------
 Center     Atomic      Atomic             Coordinates (Angstroms)
 Number     Number       Type             X           Y           Z
 ---------------------------------------------------------------------
      1          6           0       -2.939200   -1.141222    0.220584
      2          1           0       -3.143809   -2.171335    0.512678
      3          1           0       -3.874743   -0.642446   -0.022932
      4          6           0       -2.201614   -0.448249    1.357789
      5          8           0       -1.326469   -1.317445    1.930697
      6          6           0       -0.385008   -0.757044    2.839049
      7          1           0       -0.897340   -0.348283    3.713453
      8          1           0        0.275465   -1.567383    3.141074
      9          1           0        0.199958    0.034719    2.356042
     10          1           0       -1.724593    0.489626    1.066282
     11          1           0       -2.299469   -1.148826   -0.667471
     12         35           0       -3.589019    0.255285    2.737890
 ---------------------------------------------------------------------
                    Distance matrix (angstroms):
                    1          2          3          4          5
     1  C    0.000000
     2  H    1.090099   0.000000
     3  H    1.087804   1.777258   0.000000
     4  C    1.522328   2.137982   2.177949   0.000000
     5  O    2.357211   2.458176   3.281156   1.360001   0.000000
     6  C    3.678022   3.875977   4.514677   2.364221   1.423201
     7  H    4.122873   4.314522   4.786651   2.694490   2.074041
     8  H    4.364052   4.354842   5.300063   3.250920   2.023283
     9  H    3.974586   4.409698   4.766682   2.645243   2.083085
    10  H    2.202304   3.066165   2.662915   1.091850   2.042357
    11  H    1.094511   1.775158   1.775764   2.145242   2.779503
    12  Br   2.951157   3.322388   2.917138   2.079551   2.871267
                    6          7          8          9         10
     6  C    0.000000
     7  H    1.092773   0.000000
     8  H    1.088160   1.785859   0.000000
     9  H    1.096526   1.786986   1.785695   0.000000
    10  H    2.547818   2.897232   3.540661   2.360999   0.000000
    11  H    4.014266   4.668975   4.616328   4.097505   2.453754
    12  Br   3.361656   2.925945   4.291726   3.814552   2.515010
                   11         12
    11  H    0.000000
    12  Br   3.902685   0.000000
 Stoichiometry    C3H7BrO
 Framework group  C1[X(C3H7BrO)]
 Deg. of freedom    30
 Full point group                 C1      NOp   1
 Largest Abelian subgroup         C1      NOp   1
 Largest concise Abelian subgroup C1      NOp   1
                         Standard orientation:                         
 ---------------------------------------------------------------------
 Center     Atomic      Atomic             Coordinates (Angstroms)
 Number     Number       Type             X           Y           Z
 ---------------------------------------------------------------------
      1          6           0        0.592710    2.058008   -0.042631
      2          1           0        0.782759    2.147954   -1.112261
      3          1           0       -0.374400    2.498117    0.190434
      4          6           0        0.658710    0.586893    0.343304
      5          8           0        1.650422   -0.024825   -0.358058
      6          6           0        2.006739   -1.335575    0.066765
      7          1           0        1.171242   -2.023876   -0.082690
      8          1           0        2.853182   -1.641016   -0.545064
      9          1           0        2.296406   -1.338011    1.124336
     10          1           0        0.744933    0.417197    1.418434
     11          1           0        1.371087    2.604388    0.499175
     12         35           0       -1.188501   -0.294917   -0.023786
 ---------------------------------------------------------------------
 Rotational constants (GHZ):           4.2897683           2.1288044           1.4959610
 Standard basis: 6-311G(d) (5D, 7F)
 There are   144 symmetry adapted cartesian basis functions of A   symmetry.
 There are   137 symmetry adapted basis functions of A   symmetry.
   137 basis functions,   253 primitive gaussians,   144 cartesian basis functions
    34 alpha electrons       34 beta electrons
       nuclear repulsion energy       340.5189218148 Hartrees.
 NAtoms=   12 NActive=   12 NUniq=   12 SFac= 1.00D+00 NAtFMM=   60 NAOKFM=F Big=F
 Integral buffers will be    131072 words long.
 Raffenetti 2 integral format.
 Two-electron integral symmetry is turned on.
 One-electron integrals computed using PRISM.
 NBasis=   137 RedAO= T EigKep=  3.43D-03  NBF=   137
 NBsUse=   137 1.00D-06 EigRej= -1.00D+00 NBFU=   137
 Initial guess from the checkpoint file:  "/home/kimariyb/g16/scratch/Gau-148907.chk"
 B after Tr=    -0.000000    0.000000   -0.000000
         Rot=    0.999999   -0.000415   -0.000302   -0.001484 Ang=  -0.18 deg.
 ExpMin= 1.03D-01 ExpMax= 4.40D+05 ExpMxC= 1.51D+04 IAcc=2 IRadAn=         4 AccDes= 0.00D+00
 Harris functional with IExCor=  402 and IRadAn=       4 diagonalized for initial guess.
 HarFok:  IExCor=  402 AccDes= 0.00D+00 IRadAn=         4 IDoV= 1 UseB2=F ITyADJ=14
 ICtDFT=  3500011 ScaDFX=  1.000000  1.000000  1.000000  1.000000
 FoFCou: FMM=F IPFlag=           0 FMFlag=      100000 FMFlg1=           0
         NFxFlg=           0 DoJE=T BraDBF=F KetDBF=T FulRan=T
         wScrn=  0.000000 ICntrl=       500 IOpCl=  0 I1Cent=   200000004 NGrid=           0
         NMat0=    1 NMatS0=      1 NMatT0=    0 NMatD0=    1 NMtDS0=    0 NMtDT0=    0
 Petite list used in FoFCou.
 Keep R1 ints in memory in canonical form, NReq=54395343.
 Requested convergence on RMS density matrix=1.00D-08 within 128 cycles.
 Requested convergence on MAX density matrix=1.00D-06.
 Requested convergence on             energy=1.00D-06.
 No special actions if energy rises.
 Integral accuracy reduced to 1.0D-05 until final iterations.
 Initial convergence to 1.0D-05 achieved.  Increase integral accuracy.
 SCF Done:  E(RB3LYP) =  -2767.94542338     A.U. after   11 cycles
            NFock= 11  Conv=0.92D-08     -V/T= 2.0014
 Calling FoFJK, ICntrl=      2127 FMM=F ISym2X=0 I1Cent= 0 IOpClX= 0 NMat=1 NMatS=1 NMatT=0.
 ***** Axes restored to original set *****
 -------------------------------------------------------------------
 Center     Atomic                   Forces (Hartrees/Bohr)
 Number     Number              X              Y              Z
 -------------------------------------------------------------------
      1        6           0.003033770    0.002051342    0.004694875
      2        1          -0.001516272   -0.000072799   -0.000189496
      3        1           0.000489113    0.000924316   -0.000455982
      4        6          -0.001987550   -0.001005251   -0.005311714
      5        8          -0.000010543   -0.001794539   -0.000086274
      6        6           0.000897234    0.001495945    0.000329750
      7        1           0.000008250   -0.000111166    0.000210230
      8        1          -0.000185461   -0.000178430   -0.000309953
      9        1          -0.000064116   -0.000145918    0.000083255
     10        1          -0.000960622    0.000900432    0.000266662
     11        1           0.000414877   -0.001131165    0.000478533
     12       35          -0.000118679   -0.000932766    0.000290114
 -------------------------------------------------------------------
 Cartesian Forces:  Max     0.005311714 RMS     0.001521650

 GradGradGradGradGradGradGradGradGradGradGradGradGradGradGradGradGradGrad
 Berny optimization.
 Using GEDIIS/GDIIS optimizer.
 FormGI is forming the generalized inverse of G from B-inverse, IUseBI=4.
 Internal  Forces:  Max     0.005362127 RMS     0.000964112
 Search for a local minimum.
 Step number   5 out of a maximum of   55
 All quantities printed in internal units (Hartrees-Bohrs-Radians)
 Mixed Optimization -- En-DIIS/RFO-DIIS
 Update second derivatives using D2CorX and points    3    4    5
 DE= -6.08D-04 DEPred=-4.40D-04 R= 1.38D+00
 TightC=F SS=  1.41D+00  RLast= 2.12D-01 DXNew= 1.4270D+00 6.3554D-01
 Trust test= 1.38D+00 RLast= 2.12D-01 DXMaxT set to 8.49D-01
 ITU=  1  1  1  1  0
 Use linear search instead of GDIIS.
     Eigenvalues ---    0.00667   0.01354   0.01474   0.06541   0.07078
     Eigenvalues ---    0.07399   0.08326   0.10398   0.10579   0.12916
     Eigenvalues ---    0.15771   0.15884   0.16000   0.16009   0.16373
     Eigenvalues ---    0.16702   0.17668   0.21174   0.24098   0.27457
     Eigenvalues ---    0.36877   0.37225   0.37230   0.37230   0.37250
     Eigenvalues ---    0.37314   0.37594   0.40382   0.43510   0.61154
 RFO step:  Lambda=-3.93018160D-04 EMin= 6.66632001D-03
 Quartic linear search produced a step of  0.64225.
 Iteration  1 RMS(Cart)=  0.04528364 RMS(Int)=  0.00148082
 Iteration  2 RMS(Cart)=  0.00153955 RMS(Int)=  0.00009814
 Iteration  3 RMS(Cart)=  0.00000141 RMS(Int)=  0.00009813
 Iteration  4 RMS(Cart)=  0.00000000 RMS(Int)=  0.00009813
 Variable       Old X    -DE/DX   Delta X   Delta X   Delta X     New X
                                 (Linear)    (Quad)   (Total)
    R1        2.05999   0.00030  -0.00236   0.00047  -0.00189   2.05810
    R2        2.05565   0.00011  -0.00434   0.00096  -0.00338   2.05227
    R3        2.87678  -0.00536   0.00859  -0.00770   0.00089   2.87767
    R4        2.06833  -0.00014  -0.00205  -0.00006  -0.00211   2.06621
    R5        2.57003   0.00098  -0.01539   0.00172  -0.01367   2.55636
    R6        2.06330   0.00028  -0.00132   0.00059  -0.00073   2.06257
    R7        3.92978  -0.00004   0.01958   0.00339   0.02297   3.95275
    R8        2.68946   0.00105  -0.00036   0.00424   0.00388   2.69334
    R9        2.06504   0.00012  -0.00336   0.00070  -0.00266   2.06238
   R10        2.05633  -0.00007  -0.00254   0.00031  -0.00223   2.05410
   R11        2.07213  -0.00018  -0.00205  -0.00056  -0.00261   2.06952
    A1        1.90905  -0.00033   0.00931  -0.00194   0.00733   1.91639
    A2        1.89751   0.00137  -0.00572   0.00812   0.00237   1.89988
    A3        1.89711  -0.00046   0.00496  -0.00176   0.00318   1.90028
    A4        1.95541  -0.00081  -0.00994  -0.00325  -0.01327   1.94214
    A5        1.90099   0.00028   0.00767   0.00027   0.00782   1.90881
    A6        1.90295  -0.00006  -0.00569  -0.00142  -0.00719   1.89576
    A7        1.91297   0.00016   0.00780   0.00802   0.01576   1.92873
    A8        1.98586   0.00006  -0.00615   0.00309  -0.00340   1.98246
    A9        1.90341  -0.00047  -0.01272  -0.00426  -0.01708   1.88632
   A10        1.96094   0.00010   0.01133  -0.00019   0.01104   1.97198
   A11        1.94547  -0.00017   0.00493  -0.00593  -0.00085   1.94462
   A12        1.74981   0.00030  -0.00674  -0.00230  -0.00934   1.74048
   A13        2.02960  -0.00076   0.00223  -0.00069   0.00154   2.03115
   A14        1.92608   0.00023  -0.00413   0.00010  -0.00403   1.92204
   A15        1.86025  -0.00070   0.00055  -0.00022   0.00033   1.86058
   A16        1.93486   0.00015  -0.00073  -0.00085  -0.00159   1.93327
   A17        1.91881   0.00009   0.00406  -0.00006   0.00400   1.92281
   A18        1.90973   0.00012  -0.00139   0.00103  -0.00038   1.90935
   A19        1.91365   0.00010   0.00182  -0.00005   0.00177   1.91542
    D1        0.66201   0.00060   0.03459   0.03986   0.07441   0.73642
[...]
    D2       -3.05660   0.00001   0.00000   0.00064   0.00064  -3.05595
    D3       -1.12817  -0.00001   0.00000   0.00041   0.00041  -1.12776
    D4        3.11070   0.00001   0.00000   0.00048   0.00048   3.11118
    D5       -0.94349   0.00001   0.00000   0.00055   0.00055  -0.94294
    D6        0.98493  -0.00001   0.00000   0.00032   0.00032   0.98525
    D7       -1.07745   0.00000   0.00000   0.00041   0.00041  -1.07704
    D8        1.15154   0.00001   0.00000   0.00048   0.00048   1.15202
    D9        3.07997  -0.00001   0.00000   0.00025   0.00025   3.08022
   D10        2.95206  -0.00001   0.00000  -0.00035  -0.00035   2.95171
   D11        0.71089   0.00001   0.00000  -0.00018  -0.00018   0.71071
   D12       -1.23939  -0.00002   0.00000  -0.00037  -0.00037  -1.23976
   D13        1.17827  -0.00001   0.00000  -0.00080  -0.00080   1.17747
   D14       -3.02321  -0.00000   0.00000  -0.00078  -0.00078  -3.02399
   D15       -0.94336   0.00000   0.00000  -0.00072  -0.00072  -0.94408
         Item               Value     Threshold  Converged?
 Maximum Force            0.000099     0.000450     YES
 RMS     Force            0.000021     0.000300     YES
 Maximum Displacement     0.001375     0.001800     YES
 RMS     Displacement     0.000496     0.001200     YES
 Predicted change in Energy=-5.793761D-08
 Optimization completed.
    -- Stationary point found.
                           ----------------------------
                           !   Optimized Parameters   !
                           ! (Angstroms and Degrees)  !
 --------------------------                            --------------------------
 ! Name  Definition              Value          Derivative Info.                !
 --------------------------------------------------------------------------------
 ! R1    R(1,2)                  1.0903         -DE/DX =    0.0                 !
 ! R2    R(1,3)                  1.0894         -DE/DX =    0.0                 !
 ! R3    R(1,4)                  1.5075         -DE/DX =    0.0001              !
 ! R4    R(1,11)                 1.0947         -DE/DX =    0.0                 !
 ! R5    R(4,5)                  1.3612         -DE/DX =    0.0                 !
 ! R6    R(4,10)                 1.0925         -DE/DX =    0.0                 !
 ! R7    R(4,12)                 2.0801         -DE/DX =    0.0                 !
 ! R8    R(5,6)                  1.4252         -DE/DX =    0.0                 !
 ! R9    R(6,7)                  1.0929         -DE/DX =    0.0                 !
 ! R10   R(6,8)                  1.0881         -DE/DX =    0.0                 !
 ! R11   R(6,9)                  1.0961         -DE/DX =    0.0                 !
 ! A1    A(2,1,3)              109.0882         -DE/DX =    0.0                 !
 ! A2    A(2,1,4)              110.3114         -DE/DX =    0.0                 !
 ! A3    A(2,1,11)             108.5192         -DE/DX =    0.0                 !
 ! A4    A(3,1,4)              111.0521         -DE/DX =    0.0                 !
 ! A5    A(3,1,11)             109.0887         -DE/DX =    0.0                 !
 ! A6    A(4,1,11)             108.7332         -DE/DX =    0.0                 !
 ! A7    A(1,4,5)              110.1375         -DE/DX =    0.0                 !
 ! A8    A(1,4,10)             113.9301         -DE/DX =    0.0                 !
 ! A9    A(1,4,12)             108.0678         -DE/DX =    0.0                 !
 ! A10   A(5,4,10)             112.6617         -DE/DX =    0.0                 !
 ! A11   A(5,4,12)             111.3176         -DE/DX =    0.0                 !
 ! A12   A(10,4,12)            100.2757         -DE/DX =    0.0                 !
 ! A13   A(4,5,6)              116.0737         -DE/DX =    0.0                 !
 ! A14   A(5,6,7)              110.4067         -DE/DX =    0.0                 !
 ! A15   A(5,6,8)              106.3409         -DE/DX =    0.0                 !
 ! A16   A(5,6,9)              110.8773         -DE/DX =    0.0                 !
 ! A17   A(7,6,8)              109.9785         -DE/DX =    0.0                 !
 ! A18   A(7,6,9)              109.5168         -DE/DX =    0.0                 !
 ! A19   A(8,6,9)              109.6758         -DE/DX =    0.0                 !
 ! D1    D(2,1,4,5)             57.1579         -DE/DX =    0.0                 !
 ! D2    D(2,1,4,10)          -175.13           -DE/DX =    0.0                 !
 ! D3    D(2,1,4,12)           -64.6395         -DE/DX =    0.0                 !
 ! D4    D(3,1,4,5)            178.2298         -DE/DX =    0.0                 !
 ! D5    D(3,1,4,10)           -54.0581         -DE/DX =    0.0                 !
 ! D6    D(3,1,4,12)            56.4325         -DE/DX =    0.0                 !
 ! D7    D(11,1,4,5)           -61.7334         -DE/DX =    0.0                 !
 ! D8    D(11,1,4,10)           65.9786         -DE/DX =    0.0                 !
 ! D9    D(11,1,4,12)          176.4692         -DE/DX =    0.0                 !
 ! D10   D(1,4,5,6)            169.1406         -DE/DX =    0.0                 !
 ! D11   D(10,4,5,6)            40.731          -DE/DX =    0.0                 !
 ! D12   D(12,4,5,6)           -71.0118         -DE/DX =    0.0                 !
 ! D13   D(4,5,6,7)             67.5099         -DE/DX =    0.0                 !
 ! D14   D(4,5,6,8)           -173.2172         -DE/DX =    0.0                 !
 ! D15   D(4,5,6,9)            -54.0504         -DE/DX =    0.0                 !
 --------------------------------------------------------------------------------
 GradGradGradGradGradGradGradGradGradGradGradGradGradGradGradGradGradGrad


 ----------------------------------------------------------------------

 Electric dipole moment (input orientation):
 (Debye = 10**-18 statcoulomb cm , SI units = C m)
                  (au)            (Debye)         (10**-30 SI)
   Tot        0.106150D+01      0.269807D+01      0.899980D+01
   x          0.927645D+00      0.235784D+01      0.786490D+01
   y          0.445615D-01      0.113264D+00      0.377808D+00
   z         -0.514081D+00     -0.130666D+01     -0.435856D+01

 Dipole polarizability, Alpha (input orientation).
 (esu units = cm**3 , SI units = C**2 m**2 J**-1)
 Alpha(0;0):
               (au)            (10**-24 esu)      (10**-40 SI)
   iso        0.568141D+02      0.841898D+01      0.936737D+01
   aniso      0.249112D+02      0.369146D+01      0.410730D+01
   xx         0.649526D+02      0.962499D+01      0.107092D+02
   yx        -0.714169D+01     -0.105829D+01     -0.117750D+01
   yy         0.463302D+02      0.686542D+01      0.763881D+01
   zx        -0.477127D+01     -0.707029D+00     -0.786676D+00
   zy         0.650096D+01      0.963343D+00      0.107186D+01
   zz         0.591594D+02      0.876652D+01      0.975407D+01

 ----------------------------------------------------------------------

 Dipole orientation:
     6         -2.26378133          1.99097679         -5.14956434
     1         -2.08382380          3.67655970         -6.32085843
     1         -3.68764474          0.75055638         -5.96913591
     6          0.24773836          0.66386594         -4.93396161
     8          2.01683453          2.26656313         -3.97572259
     6          4.35557652          1.14830540         -3.24558904
     1          5.37289067          0.45813462         -4.90506632
     1          5.44170440          2.62980921         -2.32156275
     1          4.04500302         -0.41615877         -1.92416005
     1          0.16269022         -1.12894996         -3.91367110
     1         -2.87539698          2.56672502         -3.25917388
    35          1.26327917         -0.61222879         -8.51048982

 Electric dipole moment (dipole orientation):
 (Debye = 10**-18 statcoulomb cm , SI units = C m)
                  (au)            (Debye)         (10**-30 SI)
   Tot        0.106150D+01      0.269807D+01      0.899980D+01
   x          0.000000D+00      0.000000D+00      0.000000D+00
   y          0.000000D+00      0.000000D+00      0.000000D+00
   z          0.106150D+01      0.269807D+01      0.899980D+01

 Dipole polarizability, Alpha (dipole orientation).
 (esu units = cm**3 , SI units = C**2 m**2 J**-1)
 Alpha(0;0):
               (au)            (10**-24 esu)      (10**-40 SI)
   iso        0.568141D+02      0.841898D+01      0.936737D+01
   aniso      0.249112D+02      0.369146D+01      0.410730D+01
   xx         0.563590D+02      0.835154D+01      0.929234D+01
   yx        -0.245329D+01     -0.363539D+00     -0.404492D+00
   yy         0.472718D+02      0.700496D+01      0.779407D+01
   zx         0.274186D+00      0.406302D-01      0.452072D-01
   zy         0.102547D+02      0.151959D+01      0.169077D+01
   zz         0.668114D+02      0.990042D+01      0.110157D+02

 ----------------------------------------------------------------------
 1\1\GINC-LOCALHOST\Freq\RB3LYP\6-311G(d)\C3H7Br1O1\KIMARIYB\13-Jul-202
 3\0\\#N Geom=AllCheck Guess=TCheck SCRF=Check GenChk RB3LYP/6-311G(d) 
 Freq\\Title Card Required\\0,1\C,-2.9369366832,-1.1371160362,0.2286123
 996\H,-3.4103193223,-2.0564026447,0.5745651476\H,-3.6979674406,-0.4810
 767303,-0.1922547195\C,-2.2093648069,-0.4637320256,1.3642829015\O,-1.2
 90777114,-1.3126872406,1.9012164557\C,-0.366918298,-0.7360024153,2.820
 4841079\H,-0.882010365,-0.4213836917,3.7315564837\H,0.358804042,-1.512
 7283779,3.0530416238\H,0.1439217936,0.1243105469,2.3729616182\H,-1.782
 8329555,0.5076366342,1.1033016661\H,-2.2123297742,-1.3914333865,-0.551
 4822003\Br,-3.6191092659,0.1180127677,2.7788488458\\Version=ES64L-G16R
 evA.03\State=1-A\HF=-2767.9469008\RMSD=1.494e-09\RMSF=3.461e-05\ZeroPo
 int=0.0988932\Thermal=0.1054827\Dipole=0.9276449,0.0445615,-0.5140806\
 DipoleDeriv=-0.0575965,0.0246222,0.0405949,-0.0481979,0.0472942,-0.071
 7363,-0.0708208,-0.0829804,-0.1136226,0.0584678,-0.0510619,-0.0002951,
 -0.0587321,-0.0329612,0.023156,0.0323203,0.0806886,0.0486257,-0.003529
 4,0.0558886,-0.0671145,0.0819112,-0.0025021,0.0438641,-0.0319548,0.007
 93,0.0512273,1.5055404,-0.4682721,-0.3260717,-0.7860383,0.6721229,0.15
 99378,-0.2644972,0.1751448,0.949309,-1.3447604,0.2266845,-0.1844008,0.
 4562992,-0.6379394,-0.0652702,-0.5155913,0.0276657,-0.6720965,0.696080
 7,0.0416452,0.122732,0.2465668,0.3342169,0.0645886,0.2866299,-0.003067
 1,0.4482176,-0.0171233,0.0300222,0.0977218,-0.0584363,0.0559884,-0.058
 9571,-0.0062707,-0.0242676,-0.0581079,-0.0451381,0.0710289,-0.0627108,
 0.1093137,-0.03115,0.031776,-0.0425524,0.0048729,0.0695516,-0.0349045,
 -0.0431709,-0.0111487,-0.1588809,-0.0730042,0.0425405,0.038154,0.11227
 62,-0.0304073,-0.1219022,-0.084515,0.0798915,0.005666,-0.0856252,0.022
 8102,0.1136643,-0.030339,-0.0989902,-0.0140276,0.0211097,0.087656,0.02
 95935,0.0574824,-0.0825282,0.0929876,-0.0674776,-0.0787772,-0.6211068,
 0.1760188,0.2231452,0.1809349,-0.3039227,-0.1101814,0.3679311,-0.20044
 66,-0.5149294\Polar=64.9526469,-7.1416858,46.3301636,-4.7712685,6.5009
 602,59.1593859\Quadrupole=1.2917257,-2.1947025,0.9029768,1.0416726,1.5
 988651,-0.4355282\PG=C01 [X(C3H7Br1O1)]\NImag=0\\0.57262608,-0.0232534
 0,0.56838135,-0.01590461,-0.04453698,0.51466584,-0.09849349,-0.0977972
 9,0.03657296,0.10284998,-0.09800115,-0.23821078,0.07306773,0.10941326,
 0.25774660,0.03911670,0.07777979,-0.07713516,-0.03985900,-0.07845655,0
 .08200474,-0.18029247,0.11336632,-0.07516232,0.01223753,-0.00839990,0.
 00632771,0.19355410,0.11676246,-0.14999690,0.06488619,0.01997345,-0.01
 450067,0.00900067,-0.12541730,0.15811203,-0.07123291,0.06042531,-0.087
 30394,-0.00670362,0.00495905,-0.00470525,0.08156515,-0.06664647,0.0936
 4356,-0.09898873,-0.04190668,-0.05597907,-0.00838240,-0.00770377,-0.01
 244185,-0.01084022,-0.01108093,-0.01561108,0.39341528,-0.03506211,-0.1
 2017297,-0.04040265,-0.01504524,-0.01653885,-0.02720023,0.01158924,0.0
 1039573,0.01950054,0.09407831,0.57620384,-0.04617038,-0.04834540,-0.14
 118365,0.00622212,0.00446847,0.00804980,-0.00149346,-0.00563164,-0.008
 74693,0.13310583,-0.05997862,0.38674627,-0.02550337,0.01822228,-0.0188
 1314,0.00107076,0.00126492,0.00219517,-0.00213924,-0.00238157,-0.00410
 727,-0.13781668,0.08725190,-0.08279590,0.34864871,-0.00542244,0.014183
 49,-0.00373363,0.00075294,0.00144926,0.00069133,-0.00225196,-0.0008706
 2,-0.00362893,0.04568495,-0.18363418,0.04744276,-0.05541436,0.32631764
 ,-0.02992143,0.02134423,-0.01951971,0.00068532,0.00052717,0.00145960,-
 0.00352148,-0.00320494,-0.00407499,-0.05597858,0.05254754,-0.11173492,
 0.19947043,0.00366141,0.27606330,0.00038999,0.00213865,0.00000195,-0.0
 0017673,0.00003390,-0.00009316,0.00080744,-0.00051070,-0.00054446,-0.0
 4449861,-0.00019990,-0.02401796,-0.11951076,-0.02263672,-0.05308286,0.
 53867962,0.00308363,-0.00317851,0.00155154,0.00006210,0.00023025,-0.00
 018834,0.00086419,0.00083672,0.00098701,0.01159261,0.01198332,0.019784
 35,-0.04572580,-0.11725961,-0.05316302,-0.06215974,0.58291955,-0.00136
 126,0.00191732,0.00090939,-0.00026270,-0.00022847,-0.00015959,-0.00019
 699,-0.00052415,0.00029557,-0.02575739,0.00263352,-0.01700756,-0.06008
 663,-0.03055866,-0.12155106,-0.04896541,-0.04185992,0.52542998,-0.0005
 2785,0.00017317,0.00019093,0.00003521,-0.00001132,-0.00000655,-0.00022
 348,0.00004727,0.00002712,0.00588149,-0.00380448,-0.00153132,0.0074591
 0,-0.00854153,-0.02968320,-0.11892902,0.03838468,0.11282960,0.12289178
 ,-0.00027350,0.00008270,-0.00008954,0.00001303,0.00000765,-0.00001287,
 -0.00010559,-0.00000588,-0.00000840,0.00250382,-0.00148463,0.00071636,
 -0.00031062,-0.00458308,-0.01854755,0.03533326,-0.07197454,-0.05503905
 ,-0.03531028,0.07337135,-0.00078276,0.00026970,-0.00006582,0.00007463,
 -0.00000945,0.00002481,-0.00022515,-0.00002090,-0.00011580,0.00685264,
 -0.00521442,-0.00040477,-0.00595791,-0.01067296,-0.02773350,0.10622595
 ,-0.05435775,-0.22261139,-0.11067424,0.06931286,0.24881786,-0.00052110
 ,0.00106518,-0.00024516,-0.00001375,-0.00001461,0.00008130,-0.00013767
 ,-0.00023990,-0.00031328,-0.00076144,-0.00379875,-0.00159487,-0.022236
 52,0.01450644,-0.01208966,-0.16365109,0.12638943,-0.03239607,-0.008533
 38,0.01153552,-0.00279941,0.18320165,-0.00029099,0.00064342,-0.0004327
 4,0.00004493,0.00001941,0.00012260,-0.00007184,-0.00012653,-0.00017184
 ,-0.00211566,-0.00075697,-0.00195781,-0.01505696,0.01377772,-0.0058412
 9,0.13712982,-0.20168534,0.04324133,0.00352204,-0.00474351,0.00212010,
 -0.13927915,0.20762497,-0.00086449,0.00079062,0.00002292,-0.00003109,-
 0.00005049,-0.00000015,-0.00015571,-0.00018926,-0.00030246,-0.00161160
 ,-0.00337959,-0.00277124,-0.02317078,0.01690882,-0.01154455,-0.0282260
 1,0.03475273,-0.05886887,0.01692011,-0.01942422,0.00904519,0.04612795,
 -0.04017769,0.06586544,0.00000870,0.00040804,-0.00049899,0.00014484,0.
 00024021,0.00016244,-0.00004483,0.00001757,-0.00012691,0.00401775,-0.0
 0666043,0.00342685,-0.02079425,-0.02062157,-0.00340752,-0.10045681,-0.
 08116177,0.04965029,-0.00551559,-0.01265315,0.00815842,0.01291928,0.01
 610895,-0.00911183,0.11025682,0.00005745,0.00052312,-0.00024805,0.0002
 2092,0.00006086,0.00021637,-0.00008072,-0.00001059,-0.00008832,0.00500
 086,-0.00036428,0.00076486,-0.01545026,-0.01297000,-0.00487205,-0.0839
 1688,-0.20117475,0.08680221,0.00487107,0.00895763,-0.00298179,-0.01052
 490,-0.01541524,0.01062651,0.10211902,0.21910834,-0.00002650,-0.000228
 34,-0.00004015,0.00003654,0.00013090,-0.00007658,0.00006192,0.00007443
 ,-0.00008319,0.00096473,-0.00436260,0.00288693,-0.02014001,-0.02336085
 ,0.00667970,0.05216208,0.09166397,-0.10418373,0.01049390,0.02205961,-0
 .00921398,0.00337854,0.00325671,-0.00227087,-0.04828679,-0.09033303,0.
 10624539,-0.00342156,-0.01207673,0.00451341,-0.00036688,-0.00135070,-0
 .00302062,0.00002637,0.00034457,0.00044212,-0.09405899,-0.10863452,0.0
 1780541,0.00348859,0.03085551,-0.01566053,0.00435059,0.00497666,0.0018
 9989,-0.00034531,-0.00033257,-0.00018688,-0.00004870,-0.00007543,0.000
 05267,0.00011659,-0.00139716,0.00129229,0.10131598,-0.00562711,-0.0084
 3143,0.00330402,-0.00054267,0.00023107,-0.00183648,-0.00036632,0.00038
 955,-0.00049887,-0.09605483,-0.25181463,0.05118802,0.00363619,-0.02810
 185,0.01429199,-0.00238815,0.00051798,-0.00408810,0.00014960,0.0001744
 1,0.00040166,0.00028554,0.00042927,-0.00015107,0.00159035,0.00108812,0
 .00098692,0.09260125,0.28008907,-0.01167593,-0.02231932,0.00859869,-0.
 00264193,-0.00252528,-0.00383469,0.00037533,0.00083243,0.00049209,0.01
 267989,0.05825870,-0.06042874,-0.00139054,0.01676053,0.00004228,0.0027
 9235,0.00204133,0.00012754,0.00004859,0.00002742,-0.00015928,-0.000116
 88,-0.00039809,0.00017099,-0.00046147,-0.00043560,0.00021205,-0.018350
 94,-0.05758377,0.06726931,-0.16412803,0.03871486,0.12172978,-0.0092021
 6,0.00400783,0.00838660,-0.01368978,0.00292430,0.01588580,0.00878419,-
 0.00212738,-0.01070582,0.00088878,-0.00035729,-0.00016799,0.00007884,-
 0.00016282,0.00001381,-0.00005457,0.00000836,0.00000393,0.00003139,0.0
 0000269,0.00006403,-0.00003056,-0.00001039,-0.00000266,0.00064639,0.00
 033967,0.00078820,0.17519700,0.03859777,-0.06178599,-0.04199769,-0.018
 07315,0.00866303,0.01951856,0.01109166,-0.00438014,-0.01462863,0.01079
 443,-0.00502516,-0.01150528,0.00035827,0.00034833,0.00140976,-0.000140
 85,-0.00001049,-0.00004307,0.00008225,0.00000110,0.00011916,-0.0000051
 6,0.00001066,0.00004474,-0.00000884,-0.00006579,0.00000447,-0.00004450
 ,0.00006944,0.00081158,-0.04245637,0.06251936,0.12075788,-0.04115924,-
 0.17740520,0.00585382,-0.00227929,-0.00696794,-0.00856556,0.00208260,0
 .01124036,0.01745015,-0.00616002,-0.02058716,-0.00000825,0.00059139,0.
 00212720,-0.00062305,-0.00008151,-0.00008755,0.00016774,0.00009031,0.0
 0028721,-0.00004668,0.00000217,0.00000679,0.00000498,-0.00001211,-0.00
 003178,-0.00054998,-0.00001982,0.00092963,-0.13368142,0.04897570,0.192
 97167,-0.00114815,0.00094558,0.00359427,0.00029710,0.00052133,-0.00084
 874,0.00074226,-0.00043923,0.00071935,-0.01675165,-0.01758665,0.007749
 51,-0.03355513,0.02344603,0.00335750,0.00291654,0.00385683,0.00463287,
 -0.00213838,-0.00040828,-0.00068924,-0.00024868,0.00008161,0.00000675,
 -0.00062193,-0.00088902,0.00006596,-0.01170306,0.00637647,0.01795334,0
 .00147852,-0.00019551,-0.00075962,0.06073257,0.00942939,-0.00203749,-0
 .01136821,0.00097772,0.00084218,0.00036514,-0.00021779,0.00015730,-0.0
 0020044,-0.01079311,-0.01879124,0.00305394,0.02360600,-0.00865709,-0.0
 0815324,-0.00268269,-0.00120459,-0.00225297,0.00043753,0.00019679,0.00
 103380,0.00008036,0.00022215,0.00024891,0.00062161,0.00026258,0.000107
 82,-0.00486638,0.00535900,0.00453008,-0.00088346,-0.00034435,-0.002030
 17,-0.01570916,0.02399475,0.01806569,-0.00593768,-0.02154321,0.0000529
 5,0.00039622,0.00134042,0.00099059,-0.00065895,-0.00033902,-0.00367367
 ,0.01375782,-0.03481803,0.01480486,-0.01410121,0.00978662,-0.00562943,
 -0.00113038,-0.00229272,0.00121732,0.00091509,0.00212949,0.00001422,0.
 00023656,0.00064683,0.00049053,0.00056100,-0.00012379,0.01176315,-0.00
 599450,-0.01341988,-0.00231426,-0.00270932,-0.00248323,-0.03578195,0.0
 1466535,0.06111652\\0.00006378,0.00005284,0.00010836,-0.00000396,-0.00
 001936,-0.00000521,-0.00001128,-0.00000249,-0.00001014,-0.00005796,-0.
 00002530,-0.00010089,0.00001476,-0.00000299,0.00001286,-0.00006560,-0.
 00001456,-0.00004771,0.00000442,0.00001069,0.00002746,0.00000275,-0.00
 000603,-0.00000152,0.00001454,0.00001562,0.00000398,0.00001696,0.00000
 275,0.00001627,0.00000816,-0.00000926,-0.00001143,0.00001343,-0.000001
 91,0.00000797\\\@


 THIS CURIOUS WORLD WHICH WE INHABIT IS MORE WONDERFUL THAN IT IS CONVENIENT;
 MORE BEAUTIFUL THAN IT IS USEFUL;
 IT IS MORE TO BE ADMIRED THAN IT IS TO BE USED.

                                                                 -- THOREAU
 Job cpu time:       0 days  0 hours  3 minutes 20.2 seconds.
 Elapsed time:       0 days  0 hours  0 minutes 18.3 seconds.
 File lengths (MBytes):  RWF=     34 Int=      0 D2E=      0 Chk=      3 Scr=      1
 Normal termination of Gaussian 16 at Thu Jul 13 12:33:19 2023.
