 Entering Gaussian System, Link 0=g16
 Initial command:
 /home/kimariyb/g16/l1.exe "/home/kimariyb/g16/scratch/Gau-165232.inp" -scrdir="/home/kimariyb/g16/scratch/"
 Default is to use a total of  10 processors:
                               10 via shared-memory
                                1 via Linda
 Entering Link 1 = /home/kimariyb/g16/l1.exe PID=    165235.
  
 Copyright (c) 1988,1990,1992,1993,1995,1998,2003,2009,2016,
            Gaussian, Inc.  All Rights Reserved.
  
 This is part of the Gaussian(R) 16 program.  It is based on
 the Gaussian(R) 09 system (copyright 2009, Gaussian, Inc.),
 the Gaussian(R) 03 system (copyright 2003, Gaussian, Inc.),
 the Gaussian(R) 98 system (copyright 1998, Gaussian, Inc.),
 the Gaussian(R) 94 system (copyright 1995, Gaussian, Inc.),
 the Gaussian 92(TM) system (copyright 1992, Gaussian, Inc.),
 the Gaussian 90(TM) system (copyright 1990, Gaussian, Inc.),
 the Gaussian 88(TM) system (copyright 1988, Gaussian, Inc.),
 the Gaussian 86(TM) system (copyright 1986, Carnegie Mellon
 University), and the Gaussian 82(TM) system (copyright 1983,
 Carnegie Mellon University). Gaussian is a federally registered
 trademark of Gaussian, Inc.
  
 This software contains proprietary and confidential information,
 including trade secrets, belonging to Gaussian, Inc.
  
 This software is provided under written license and may be
 used, copied, transmitted, or stored only in accord with that
 written license.
  
 The following legend is applicable only to US Government
 contracts under FAR:
  
                    RESTRICTED RIGHTS LEGEND
  
 Use, reproduction and disclosure by the US Government is
 subject to restrictions as set forth in subparagraphs (a)
 and (c) of the Commercial Computer Software - Restricted
 Rights clause in FAR 52.227-19.
  
 Gaussian, Inc.
 340 Quinnipiac St., Bldg. 40, Wallingford CT 06492
  
  
 ---------------------------------------------------------------
 Warning -- This program may not be used in any manner that
 competes with the business of Gaussian, Inc. or will provide
 assistance to any competitor of Gaussian, Inc.  The licensee
 of this program is prohibited from giving any competitor of
 Gaussian, Inc. access to this program.  By using this program,
 the user acknowledges that Gaussian, Inc. is engaged in the
 business of creating and licensing software in the field of
 computational chemistry and represents and warrants to the
 licensee that it is not a competitor of Gaussian, Inc. and that
 it will not use this program in any manner prohibited above.
 ---------------------------------------------------------------
  

 Cite this work as:
 Gaussian 16, Revision A.03,
 M. J. Frisch, G. W. Trucks, H. B. Schlegel, G. E. Scuseria, 
 M. A. Robb, J. R. Cheeseman, G. Scalmani, V. Barone, 
 G. A. Petersson, H. Nakatsuji, X. Li, M. Caricato, A. V. Marenich, 
 J. Bloino, B. G. Janesko, R. Gomperts, B. Mennucci, H. P. Hratchian, 
 J. V. Ortiz, A. F. Izmaylov, J. L. Sonnenberg, D. Williams-Young, 
 F. Ding, F. Lipparini, F. Egidi, J. Goings, B. Peng, A. Petrone, 
 T. Henderson, D. Ranasinghe, V. G. Zakrzewski, J. Gao, N. Rega, 
 G. Zheng, W. Liang, M. Hada, M. Ehara, K. Toyota, R. Fukuda, 
 J. Hasegawa, M. Ishida, T. Nakajima, Y. Honda, O. Kitao, H. Nakai, 
 T. Vreven, K. Throssell, J. A. Montgomery, Jr., J. E. Peralta, 
 F. Ogliaro, M. J. Bearpark, J. J. Heyd, E. N. Brothers, K. N. Kudin, 
 V. N. Staroverov, T. A. Keith, R. Kobayashi, J. Normand, 
 K. Raghavachari, A. P. Rendell, J. C. Burant, S. S. Iyengar, 
 J. Tomasi, M. Cossi, J. M. Millam, M. Klene, C. Adamo, R. Cammi, 
 J. W. Ochterski, R. L. Martin, K. Morokuma, O. Farkas, 
 J. B. Foresman, and D. J. Fox, Gaussian, Inc., Wallingford CT, 2016.
 
 ******************************************
 Gaussian 16:  ES64L-G16RevA.03 25-Dec-2016
                21-Jul-2023 
 ******************************************
 ------------------------------------------------------
 # b3lyp/6-311g* opt freq scrf=(solvent=water) em=gd3bj
 ------------------------------------------------------
 1/18=20,19=15,26=3,38=1/1,3;
 2/9=110,12=2,17=6,18=5,40=1/2;
 3/5=4,6=6,7=1,11=2,25=1,30=1,70=2201,71=1,72=1,74=-5,124=41/1,2,3;
 4//1;
 5/5=2,38=5,53=1/2;
 6/7=2,8=2,9=2,10=2,28=1/1;
 7//1,2,3,16;
 1/18=20,19=15,26=3/3(2);
 2/9=110/2;
 99//99;
 2/9=110/2;
 3/5=4,6=6,7=1,11=2,25=1,30=1,70=2205,71=1,72=1,74=-5,124=41/1,2,3;
 4/5=5,16=3,69=1/1;
 5/5=2,38=5,53=1/2;
 7//1,2,3,16;
 1/18=20,19=15,26=3/3(-5);
 2/9=110/2;
 6/7=2,8=2,9=2,10=2,19=2,28=1/1;
 99/9=1/99;
 ---------
 reaction1
 ---------
 Symbolic Z-matrix:
 Charge =  1 Multiplicity = 1
 C                    -0.08014   0.02782  -1.11672 
 C                    -0.335     0.36551   0.27201 
 O                     0.96025   0.90641  -0.49075 
 H                     0.29905  -0.95496  -1.36501 
 H                    -0.59526   0.55529  -1.90708 
 C                    -0.02513  -0.62129   1.35293 
 H                     0.31498  -0.11729   2.25866 
 H                    -0.9574   -1.1435    1.5769 
 H                     0.71595  -1.35754   1.04514 
 C                    -1.24243   1.50479   0.60355 
 H                    -2.23956   1.08779   0.75852 
 H                    -0.92759   2.00344   1.52078 
 H                    -1.29312   2.23049  -0.20743 
 H                     1.80413   0.36049  -0.25809 
 O                     2.96606  -0.53753   0.05634 
 H                     3.60879  -0.64771  -0.65426 
 H                     3.45149  -0.299     0.85532 
 
 Add virtual bond connecting atoms O15        and H14        Dist= 2.84D+00.

 GradGradGradGradGradGradGradGradGradGradGradGradGradGradGradGradGradGrad
 Berny optimization.
 Initialization pass.
                           ----------------------------
                           !    Initial Parameters    !
                           ! (Angstroms and Degrees)  !
 --------------------------                            --------------------------
 ! Name  Definition              Value          Derivative Info.                !
 --------------------------------------------------------------------------------
 ! R1    R(1,2)                  1.4517         estimate D2E/DX2                !
 ! R2    R(1,3)                  1.4987         estimate D2E/DX2                !
 ! R3    R(1,4)                  1.0823         estimate D2E/DX2                !
 ! R4    R(1,5)                  1.0809         estimate D2E/DX2                !
 ! R5    R(2,3)                  1.5975         estimate D2E/DX2                !
 ! R6    R(2,6)                  1.4961         estimate D2E/DX2                !
 ! R7    R(2,10)                 1.4938         estimate D2E/DX2                !
 ! R8    R(3,14)                 1.0316         estimate D2E/DX2                !
 ! R9    R(6,7)                  1.0909         estimate D2E/DX2                !
 ! R10   R(6,8)                  1.0918         estimate D2E/DX2                !
 ! R11   R(6,9)                  1.089          estimate D2E/DX2                !
 ! R12   R(10,11)                1.0919         estimate D2E/DX2                !
 ! R13   R(10,12)                1.0905         estimate D2E/DX2                !
 ! R14   R(10,13)                1.0894         estimate D2E/DX2                !
 ! R15   R(14,15)                1.5018         estimate D2E/DX2                !
 ! R16   R(15,16)                0.9645         estimate D2E/DX2                !
 ! R17   R(15,17)                0.9648         estimate D2E/DX2                !
 ! A1    A(2,1,4)              119.485          estimate D2E/DX2                !
 ! A2    A(2,1,5)              120.1536         estimate D2E/DX2                !
 ! A3    A(3,1,4)              112.6399         estimate D2E/DX2                !
 ! A4    A(3,1,5)              110.4977         estimate D2E/DX2                !
 ! A5    A(4,1,5)              116.2554         estimate D2E/DX2                !
 ! A6    A(1,2,6)              120.0903         estimate D2E/DX2                !
 ! A7    A(1,2,10)             119.76           estimate D2E/DX2                !
 ! A8    A(3,2,6)              113.6018         estimate D2E/DX2                !
 ! A9    A(3,2,10)             109.8934         estimate D2E/DX2                !
 ! A10   A(6,2,10)             117.9395         estimate D2E/DX2                !
 ! A11   A(1,3,14)             110.5984         estimate D2E/DX2                !
 ! A12   A(2,3,14)             112.1093         estimate D2E/DX2                !
 ! A13   A(2,6,7)              111.0823         estimate D2E/DX2                !
 ! A14   A(2,6,8)              106.6695         estimate D2E/DX2                !
 ! A15   A(2,6,9)              112.4995         estimate D2E/DX2                !
 ! A16   A(7,6,8)              108.4743         estimate D2E/DX2                !
 ! A17   A(7,6,9)              109.5627         estimate D2E/DX2                !
 ! A18   A(8,6,9)              108.4025         estimate D2E/DX2                !
 ! A19   A(2,10,11)            107.1566         estimate D2E/DX2                !
 ! A20   A(2,10,12)            111.1043         estimate D2E/DX2                !
 ! A21   A(2,10,13)            111.7827         estimate D2E/DX2                !
 ! A22   A(11,10,12)           108.5983         estimate D2E/DX2                !
 ! A23   A(11,10,13)           108.5158         estimate D2E/DX2                !
 ! A24   A(12,10,13)           109.5713         estimate D2E/DX2                !
 ! A25   A(14,15,16)           115.445          estimate D2E/DX2                !
 ! A26   A(14,15,17)           114.5069         estimate D2E/DX2                !
 ! A27   A(16,15,17)           107.6435         estimate D2E/DX2                !
 ! A28   L(3,14,15,4,-1)       175.3895         estimate D2E/DX2                !
 ! A29   L(3,14,15,4,-2)       181.3244         estimate D2E/DX2                !
 ! D1    D(4,1,2,6)              2.3327         estimate D2E/DX2                !
 ! D2    D(4,1,2,10)          -160.4335         estimate D2E/DX2                !
 ! D3    D(5,1,2,6)            158.7088         estimate D2E/DX2                !
 ! D4    D(5,1,2,10)            -4.0574         estimate D2E/DX2                !
 ! D5    D(4,1,3,14)            -9.9959         estimate D2E/DX2                !
 ! D6    D(5,1,3,14)          -141.8799         estimate D2E/DX2                !
 ! D7    D(6,2,3,14)            11.441          estimate D2E/DX2                !
 ! D8    D(10,2,3,14)          146.0178         estimate D2E/DX2                !
 ! D9    D(1,2,6,7)            145.661          estimate D2E/DX2                !
 ! D10   D(1,2,6,8)            -96.3082         estimate D2E/DX2                !
 ! D11   D(1,2,6,9)             22.4239         estimate D2E/DX2                !
 ! D12   D(3,2,6,7)             79.4318         estimate D2E/DX2                !
 ! D13   D(3,2,6,8)           -162.5374         estimate D2E/DX2                !
 ! D14   D(3,2,6,9)            -43.8053         estimate D2E/DX2                !
 ! D15   D(10,2,6,7)           -51.2645         estimate D2E/DX2                !
 ! D16   D(10,2,6,8)            66.7662         estimate D2E/DX2                !
 ! D17   D(10,2,6,9)          -174.5017         estimate D2E/DX2                !
 ! D18   D(1,2,10,11)           94.2057         estimate D2E/DX2                !
 ! D19   D(1,2,10,12)         -147.3089         estimate D2E/DX2                !
 ! D20   D(1,2,10,13)          -24.5635         estimate D2E/DX2                !
 ! D21   D(3,2,10,11)          158.7065         estimate D2E/DX2                !
 ! D22   D(3,2,10,12)          -82.8082         estimate D2E/DX2                !
 ! D23   D(3,2,10,13)           39.9373         estimate D2E/DX2                !
 ! D24   D(6,2,10,11)          -68.9265         estimate D2E/DX2                !
 ! D25   D(6,2,10,12)           49.5589         estimate D2E/DX2                !
 ! D26   D(6,2,10,13)          172.3043         estimate D2E/DX2                !
 ! D27   D(1,3,15,16)           87.0017         estimate D2E/DX2                !
 ! D28   D(1,3,15,17)         -145.5721         estimate D2E/DX2                !
 ! D29   D(2,3,15,16)          146.3022         estimate D2E/DX2                !
 ! D30   D(2,3,15,17)          -86.2717         estimate D2E/DX2                !
 --------------------------------------------------------------------------------
 Trust Radius=3.00D-01 FncErr=1.00D-07 GrdErr=1.00D-06 EigMax=2.50D+02 EigMin=1.00D-04
 Number of steps in this run=     86 maximum allowed number of steps=    102.
 GradGradGradGradGradGradGradGradGradGradGradGradGradGradGradGradGradGrad

                          Input orientation:                          
 ---------------------------------------------------------------------
 Center     Atomic      Atomic             Coordinates (Angstroms)
 Number     Number       Type             X           Y           Z
 ---------------------------------------------------------------------
      1          6           0       -0.080140    0.027821   -1.116716
      2          6           0       -0.334998    0.365505    0.272011
      3          8           0        0.960250    0.906408   -0.490745
      4          1           0        0.299051   -0.954957   -1.365008
      5          1           0       -0.595259    0.555293   -1.907083
      6          6           0       -0.025132   -0.621294    1.352929
      7          1           0        0.314981   -0.117287    2.258661
      8          1           0       -0.957397   -1.143496    1.576904
      9          1           0        0.715948   -1.357542    1.045143
     10          6           0       -1.242429    1.504790    0.603548
     11          1           0       -2.239557    1.087786    0.758516
     12          1           0       -0.927593    2.003436    1.520781
     13          1           0       -1.293115    2.230486   -0.207434
     14          1           0        1.804128    0.360489   -0.258094
     15          8           0        2.966062   -0.537534    0.056342
     16          1           0        3.608792   -0.647712   -0.654261
     17          1           0        3.451485   -0.298995    0.855323
 ---------------------------------------------------------------------
                    Distance matrix (angstroms):
                    1          2          3          4          5
     1  C    0.000000
     2  C    1.451739   0.000000
     3  O    1.498722   1.597511   0.000000
     4  H    1.082260   2.196695   2.160139   0.000000
     5  H    1.080858   2.202772   2.132816   1.836979   0.000000
     6  C    2.554119   1.496052   2.589205   2.757464   3.512418
     7  H    3.401521   2.145306   3.003924   3.719264   4.316749
     8  H    3.065477   2.089787   3.486352   3.204537   3.892967
     9  H    2.688238   2.161275   2.746653   2.478852   3.754176
    10  C    2.547874   1.493760   2.531271   3.507382   2.761094
    11  H    3.050099   2.094212   3.439813   3.889304   3.176898
    12  H    3.402590   2.143225   2.968781   4.310977   3.736016
    13  H    2.673918   2.150816   2.628897   3.744598   2.486379
    14  H    2.097228   2.203837   1.031641   2.284932   2.917905
    15  O    3.312859   3.429138   2.531315   3.050807   4.210976
    16  H    3.778681   4.175891   3.075191   3.399110   4.548717
    17  H    4.058093   3.888350   3.077523   3.911265   4.973614
                    6          7          8          9         10
     6  C    0.000000
     7  H    1.090894   0.000000
     8  H    1.091777   1.771114   0.000000
     9  H    1.089033   1.780908   1.768804   0.000000
    10  C    2.561956   2.792142   2.835857   3.496168   0.000000
    11  H    2.859713   3.198171   2.700428   3.846660   1.091866
    12  H    2.780615   2.566305   3.147574   3.771423   1.090452
    13  H    3.489293   3.765586   3.831491   4.298747   1.089447
    14  H    2.627829   2.963087   3.640770   2.415407   3.366506
    15  O    3.261195   3.472038   4.251215   2.590975   4.709768
    16  H    4.151495   4.428957   5.106269   3.429341   5.454328
    17  H    3.526805   3.440935   4.546658   2.939339   5.034864
                   11         12         13         14         15
    11  H    0.000000
    12  H    1.772206   0.000000
    13  H    1.770473   1.780979   0.000000
    14  H    4.232475   3.650475   3.618338   0.000000
    15  O    5.498471   4.874593   5.086463   1.501801   0.000000
    16  H    6.261875   5.686667   5.701962   2.104811   0.964468
    17  H    5.858369   4.992028   5.480781   2.094851   0.964835
                   16         17
    16  H    0.000000
    17  H    1.557303   0.000000
 Stoichiometry    C4H11O2(1+)
 Framework group  C1[X(C4H11O2)]
 Deg. of freedom    45
 Full point group                 C1      NOp   1
 Largest Abelian subgroup         C1      NOp   1
 Largest concise Abelian subgroup C1      NOp   1
                         Standard orientation:                         
 ---------------------------------------------------------------------
 Center     Atomic      Atomic             Coordinates (Angstroms)
 Number     Number       Type             X           Y           Z
 ---------------------------------------------------------------------
      1          6           0       -0.317536   -1.008653    0.909710
      2          6           0       -0.835420    0.111666    0.145362
      3          8           0        0.268105   -0.870317   -0.462899
      4          1           0        0.408230   -0.829491    1.692303
      5          1           0       -0.888380   -1.923191    0.987240
      6          6           0       -0.328445    1.495061    0.404913
      7          1           0       -0.295107    2.079869   -0.515380
      8          1           0       -1.038071    1.965584    1.088300
      9          1           0        0.654217    1.497553    0.874342
     10          6           0       -2.116646   -0.034218   -0.608625
     11          1           0       -2.915314    0.332054    0.039562
     12          1           0       -2.106267    0.564473   -1.519969
     13          1           0       -2.322937   -1.074547   -0.857734
     14          1           0        1.216278   -0.466760   -0.413973
     15          8           0        2.573777    0.146311   -0.222283
     16          1           0        3.292922   -0.478297   -0.070978
     17          1           0        2.847659    0.741661   -0.930417
 ---------------------------------------------------------------------
 Rotational constants (GHZ):           5.0460256           2.0681748           1.7886762
 Standard basis: 6-311G(d) (5D, 7F)
 There are   147 symmetry adapted cartesian basis functions of A   symmetry.
 There are   141 symmetry adapted basis functions of A   symmetry.
   141 basis functions,   247 primitive gaussians,   147 cartesian basis functions
    25 alpha electrons       25 beta electrons
       nuclear repulsion energy       267.4072406690 Hartrees.
 NAtoms=   17 NActive=   17 NUniq=   17 SFac= 1.00D+00 NAtFMM=   60 NAOKFM=F Big=F
 Integral buffers will be    131072 words long.
 Raffenetti 2 integral format.
 Two-electron integral symmetry is turned on.
 Nuclear repulsion after empirical dispersion term =      267.3874927552 Hartrees.
 ------------------------------------------------------------------------------
 Polarizable Continuum Model (PCM)
 =================================
 Model                : PCM.
 Atomic radii         : UFF (Universal Force Field).
 Polarization charges : Total charges.
 Charge compensation  : None.
 Solution method      : On-the-fly selection.
 Cavity type          : Scaled VdW (van der Waals Surface) (Alpha=1.100).
 Cavity algorithm     : GePol (No added spheres)
                        Default sphere list used, NSphG=   17.
                        Lebedev-Laikov grids with approx.  5.0 points / Ang**2.
                        Smoothing algorithm: York/Karplus (Gamma=1.0000).
                        Polarization charges: spherical gaussians, with
                                              point-specific exponents (IZeta= 3).
                        Self-potential: point-specific (ISelfS= 7).
                        Self-field    : sphere-specific E.n sum rule (ISelfD= 2).
 1st derivatives      : Analytical E(r).r(x)/FMM algorithm (CHGder, D1EAlg=3).
                        Cavity 1st derivative terms included.
 Solvent              : Water, Eps=  78.355300 Eps(inf)=   1.777849
 ------------------------------------------------------------------------------
 Spheres list:
 ISph  on   Nord     Re0    Alpha      Xe            Ye            Ze
    1   C      1    1.9255  1.100     -0.317536     -1.008653      0.909710
    2   C      2    1.9255  1.100     -0.835420      0.111666      0.145362
    3   O      3    1.7500  1.100      0.268105     -0.870317     -0.462899
    4   H      4    1.4430  1.100      0.408230     -0.829491      1.692303
    5   H      5    1.4430  1.100     -0.888380     -1.923191      0.987240
    6   C      6    1.9255  1.100     -0.328445      1.495061      0.404913
    7   H      7    1.4430  1.100     -0.295107      2.079869     -0.515380
    8   H      8    1.4430  1.100     -1.038071      1.965584      1.088300
    9   H      9    1.4430  1.100      0.654217      1.497553      0.874342
   10   C     10    1.9255  1.100     -2.116646     -0.034218     -0.608625
   11   H     11    1.4430  1.100     -2.915314      0.332054      0.039562
   12   H     12    1.4430  1.100     -2.106267      0.564473     -1.519969
   13   H     13    1.4430  1.100     -2.322937     -1.074547     -0.857734
   14   H     14    1.4430  1.100      1.216278     -0.466760     -0.413973
   15   O     15    1.7500  1.100      2.573777      0.146311     -0.222283
   16   H     16    1.4430  1.100      3.292922     -0.478297     -0.070978
   17   H     17    1.4430  1.100      2.847659      0.741661     -0.930417
 ------------------------------------------------------------------------------
 One-electron integrals computed using PRISM.
 NBasis=   141 RedAO= T EigKep=  1.92D-03  NBF=   141
 NBsUse=   141 1.00D-06 EigRej= -1.00D+00 NBFU=   141
 ExpMin= 1.03D-01 ExpMax= 8.59D+03 ExpMxC= 1.30D+03 IAcc=3 IRadAn=         5 AccDes= 0.00D+00
 Harris functional with IExCor=  402 and IRadAn=       5 diagonalized for initial guess.
 HarFok:  IExCor=  402 AccDes= 0.00D+00 IRadAn=         5 IDoV= 1 UseB2=F ITyADJ=14
 ICtDFT=  3500011 ScaDFX=  1.000000  1.000000  1.000000  1.000000
 FoFCou: FMM=F IPFlag=           0 FMFlag=      100000 FMFlg1=           0
         NFxFlg=           0 DoJE=T BraDBF=F KetDBF=T FulRan=T
         wScrn=  0.000000 ICntrl=       500 IOpCl=  0 I1Cent=   200000004 NGrid=           0
         NMat0=    1 NMatS0=      1 NMatT0=    0 NMatD0=    1 NMtDS0=    0 NMtDT0=    0
 Petite list used in FoFCou.
 Requested convergence on RMS density matrix=1.00D-08 within 128 cycles.
 Requested convergence on MAX density matrix=1.00D-06.
 Requested convergence on             energy=1.00D-06.
 No special actions if energy rises.
 Inv3:  Mode=1 IEnd=     5250987.
 Iteration    1 A*A^-1 deviation from unit magnitude is 3.33D-15 for    371.
 Iteration    1 A*A^-1 deviation from orthogonality  is 2.48D-15 for    913    403.
 Iteration    1 A^-1*A deviation from unit magnitude is 3.11D-15 for   1142.
 Iteration    1 A^-1*A deviation from orthogonality  is 2.90D-15 for    819    776.
 Error on total polarization charges =  0.00596
 SCF Done:  E(RB3LYP) =  -309.383015434     A.U. after   12 cycles
            NFock= 12  Conv=0.19D-08     -V/T= 2.0036

 **********************************************************************

            Population analysis using the SCF density.

 **********************************************************************

 Orbital symmetries:
       Occupied  (A) (A) (A) (A) (A) (A) (A) (A) (A) (A) (A) (A)
                 (A) (A) (A) (A) (A) (A) (A) (A) (A) (A) (A) (A)
                 (A)
       Virtual   (A) (A) (A) (A) (A) (A) (A) (A) (A) (A) (A) (A)
                 (A) (A) (A) (A) (A) (A) (A) (A) (A) (A) (A) (A)
                 (A) (A) (A) (A) (A) (A) (A) (A) (A) (A) (A) (A)
                 (A) (A) (A) (A) (A) (A) (A) (A) (A) (A) (A) (A)
                 (A) (A) (A) (A) (A) (A) (A) (A) (A) (A) (A) (A)
                 (A) (A) (A) (A) (A) (A) (A) (A) (A) (A) (A) (A)
                 (A) (A) (A) (A) (A) (A) (A) (A) (A) (A) (A) (A)
                 (A) (A) (A) (A) (A) (A) (A) (A) (A) (A) (A) (A)
                 (A) (A) (A) (A) (A) (A) (A) (A) (A) (A) (A) (A)
                 (A) (A) (A) (A) (A) (A) (A) (A)
 The electronic state is 1-A.
 Alpha  occ. eigenvalues --  -19.23417 -19.17605 -10.29765 -10.27519 -10.19417
 Alpha  occ. eigenvalues --  -10.19222  -1.14374  -1.07037  -0.84625  -0.75392
 Alpha  occ. eigenvalues --   -0.73754  -0.63004  -0.59035  -0.57876  -0.52568
 Alpha  occ. eigenvalues --   -0.49308  -0.48535  -0.46287  -0.42785  -0.42457
 Alpha  occ. eigenvalues --   -0.41477  -0.40940  -0.39474  -0.37190  -0.36709
 Alpha virt. eigenvalues --   -0.01124   0.00735   0.02558   0.04592   0.06888
 Alpha virt. eigenvalues --    0.08395   0.08987   0.09885   0.10177   0.11206
 Alpha virt. eigenvalues --    0.13785   0.14454   0.15118   0.19457   0.22952
 Alpha virt. eigenvalues --    0.24113   0.26695   0.27205   0.29685   0.32243
 Alpha virt. eigenvalues --    0.34083   0.35241   0.38405   0.39045   0.40227
 Alpha virt. eigenvalues --    0.42199   0.46379   0.48528   0.51517   0.52598
 Alpha virt. eigenvalues --    0.54801   0.55467   0.56023   0.58321   0.58424
 Alpha virt. eigenvalues --    0.59515   0.63172   0.63825   0.66112   0.67321
 Alpha virt. eigenvalues --    0.77082   0.79883   0.83011   0.85515   0.90071
 Alpha virt. eigenvalues --    0.92973   0.96764   0.98758   1.00832   1.14470
 Alpha virt. eigenvalues --    1.18470   1.32306   1.33358   1.36960   1.39198
 Alpha virt. eigenvalues --    1.44193   1.48399   1.48806   1.50305   1.53419
 Alpha virt. eigenvalues --    1.55009   1.55557   1.64323   1.68651   1.74436
 Alpha virt. eigenvalues --    1.81239   1.85765   1.88648   1.93121   2.00810
 Alpha virt. eigenvalues --    2.02564   2.07298   2.09894   2.16572   2.31012
 Alpha virt. eigenvalues --    2.32134   2.36286   2.38338   2.39141   2.42640
 Alpha virt. eigenvalues --    2.51692   2.55994   2.58762   2.66923   2.70034
 Alpha virt. eigenvalues --    2.70382   2.81101   2.86216   2.90720   2.96820
 Alpha virt. eigenvalues --    3.00812   3.09057   3.10790   3.15294   3.17551
 Alpha virt. eigenvalues --    3.18455   3.21588   3.24269   3.30343   3.40481
 Alpha virt. eigenvalues --    3.47225   3.74200   3.96600   4.11170   4.75457
 Alpha virt. eigenvalues --    4.84323   4.95810   4.98356   5.01495   5.23731
 Alpha virt. eigenvalues --   23.26875  23.61767  23.62372  23.76071  49.69985
 Alpha virt. eigenvalues --   49.80040
          Condensed to atoms (all electrons):
               1          2          3          4          5          6
     1  C    5.240706   0.269301   0.109074   0.371307   0.380502  -0.050850
     2  C    0.269301   5.176106   0.050757  -0.024813  -0.031334   0.327287
     3  O    0.109074   0.050757   8.187430  -0.016957  -0.011364  -0.023241
     4  H    0.371307  -0.024813  -0.016957   0.388463  -0.017882  -0.004121
     5  H    0.380502  -0.031334  -0.011364  -0.017882   0.379082   0.002796
     6  C   -0.050850   0.327287  -0.023241  -0.004121   0.002796   5.320164
     7  H    0.007054  -0.034510  -0.003283   0.000058  -0.000234   0.382665
     8  H   -0.003642  -0.034314   0.003522   0.000401   0.000071   0.370680
     9  H   -0.004127  -0.028100  -0.000192   0.001298   0.000297   0.374688
    10  C   -0.069431   0.326420  -0.009906   0.002752   0.001307  -0.068495
    11  H   -0.002583  -0.041398   0.003443   0.000162  -0.000143  -0.005658
    12  H    0.006771  -0.032433  -0.002296  -0.000184  -0.000024  -0.006698
    13  H   -0.005035  -0.027407   0.000682   0.000233   0.000651   0.006076
    14  H   -0.021405  -0.011295   0.193464  -0.001383  -0.000158  -0.000652
    15  O    0.002234   0.002697  -0.059938   0.002702  -0.000122  -0.006388
    16  H    0.000295  -0.000238   0.003149  -0.000424   0.000038   0.000472
    17  H   -0.000072  -0.000076   0.002837  -0.000103   0.000005   0.000549
               7          8          9         10         11         12
     1  C    0.007054  -0.003642  -0.004127  -0.069431  -0.002583   0.006771
     2  C   -0.034510  -0.034314  -0.028100   0.326420  -0.041398  -0.032433
     3  O   -0.003283   0.003522  -0.000192  -0.009906   0.003443  -0.002296
     4  H    0.000058   0.000401   0.001298   0.002752   0.000162  -0.000184
     5  H   -0.000234   0.000071   0.000297   0.001307  -0.000143  -0.000024
     6  C    0.382665   0.370680   0.374688  -0.068495  -0.005658  -0.006698
     7  H    0.440627  -0.020709  -0.024934  -0.008040   0.000017   0.002938
     8  H   -0.020709   0.435844  -0.017345  -0.002334   0.001021  -0.000142
     9  H   -0.024934  -0.017345   0.437628   0.006001  -0.000086  -0.000030
    10  C   -0.008040  -0.002334   0.006001   5.273384   0.383508   0.382372
    11  H    0.000017   0.001021  -0.000086   0.383508   0.437377  -0.020031
    12  H    0.002938  -0.000142  -0.000030   0.382372  -0.020031   0.439633
    13  H   -0.000044  -0.000131  -0.000250   0.380262  -0.019237  -0.023446
    14  H    0.000914  -0.000043  -0.002702  -0.000452  -0.000012   0.000187
    15  O   -0.000068   0.000132   0.011245  -0.000075   0.000006  -0.000022
    16  H   -0.000016  -0.000015   0.000098   0.000010  -0.000001   0.000001
    17  H    0.000132   0.000011  -0.000834   0.000021  -0.000001   0.000003
              13         14         15         16         17
     1  C   -0.005035  -0.021405   0.002234   0.000295  -0.000072
     2  C   -0.027407  -0.011295   0.002697  -0.000238  -0.000076
     3  O    0.000682   0.193464  -0.059938   0.003149   0.002837
     4  H    0.000233  -0.001383   0.002702  -0.000424  -0.000103
     5  H    0.000651  -0.000158  -0.000122   0.000038   0.000005
     6  C    0.006076  -0.000652  -0.006388   0.000472   0.000549
     7  H   -0.000044   0.000914  -0.000068  -0.000016   0.000132
     8  H   -0.000131  -0.000043   0.000132  -0.000015   0.000011
     9  H   -0.000250  -0.002702   0.011245   0.000098  -0.000834
    10  C    0.380262  -0.000452  -0.000075   0.000010   0.000021
    11  H   -0.019237  -0.000012   0.000006  -0.000001  -0.000001
    12  H   -0.023446   0.000187  -0.000022   0.000001   0.000003
    13  H    0.440926   0.000005   0.000008  -0.000001  -0.000003
    14  H    0.000005   0.266631   0.086674  -0.007008  -0.006896
    15  O    0.000008   0.086674   8.293348   0.252986   0.251348
    16  H   -0.000001  -0.007008   0.252986   0.291142  -0.021383
    17  H   -0.000003  -0.006896   0.251348  -0.021383   0.292716
 Mulliken charges:
               1
     1  C   -0.230100
     2  C    0.113351
     3  O   -0.427181
     4  H    0.298492
     5  H    0.296511
     6  C   -0.619272
     7  H    0.257434
     8  H    0.266995
     9  H    0.247344
    10  C   -0.597304
    11  H    0.263617
    12  H    0.253400
    13  H    0.246710
    14  H    0.504132
    15  O   -0.836770
    16  H    0.480895
    17  H    0.481748
 Sum of Mulliken charges =   1.00000
 Mulliken charges with hydrogens summed into heavy atoms:
               1
     1  C    0.364903
     2  C    0.113351
     3  O    0.076950
     6  C    0.152501
    10  C    0.166423
    15  O    0.125873
 Electronic spatial extent (au):  <R**2>=            738.1797
 Charge=              1.0000 electrons
 Dipole moment (field-independent basis, Debye):
    X=              3.1393    Y=             -0.1946    Z=              0.3861  Tot=              3.1689
 Quadrupole moment (field-independent basis, Debye-Ang):
   XX=            -11.6827   YY=            -31.2158   ZZ=            -32.6608
   XY=             -0.7532   XZ=             -4.5430   YZ=             -3.9380
 Traceless Quadrupole moment (field-independent basis, Debye-Ang):
   XX=             13.5037   YY=             -6.0294   ZZ=             -7.4743
   XY=             -0.7532   XZ=             -4.5430   YZ=             -3.9380
 Octapole moment (field-independent basis, Debye-Ang**2):
  XXX=             73.9299  YYY=             -3.8297  ZZZ=             -1.1228  XYY=              4.9620
  XXY=             -5.1789  XXZ=            -15.3044  XZZ=              8.2409  YZZ=              0.2237
  YYZ=              2.0380  XYZ=             -4.5378
 Hexadecapole moment (field-independent basis, Debye-Ang**3):
 XXXX=           -289.5709 YYYY=           -211.6955 ZZZZ=           -114.0530 XXXY=            -15.9480
 XXXZ=            -47.8116 YYYX=              6.8132 YYYZ=             -6.7668 ZZZX=             -7.8267
 ZZZY=             -7.3806 XXYY=           -110.0974 XXZZ=            -95.5761 YYZZ=            -51.1591
 XXYZ=            -10.8994 YYXZ=             -8.0742 ZZXY=              2.5799
 N-N= 2.673874927552D+02 E-N=-1.248140297594D+03  KE= 3.082798808002D+02
 D1PCM: PCM CHGder 1st derivatives, ID1Alg=3 FixD1E=F DoIter=F DoCFld=F I1PDM=0.
 Calling FoFJK, ICntrl=      2127 FMM=F ISym2X=0 I1Cent= 0 IOpClX= 0 NMat=1 NMatS=1 NMatT=0.
 ***** Axes restored to original set *****
 -------------------------------------------------------------------
 Center     Atomic                   Forces (Hartrees/Bohr)
 Number     Number              X              Y              Z
 -------------------------------------------------------------------
      1        6           0.003694250    0.000527355   -0.004204486
      2        6           0.003155809    0.003331213    0.004312952
      3        8          -0.006985046   -0.002300347   -0.000165387
      4        1           0.000284934   -0.000244320   -0.000249193
      5        1           0.000108184    0.000266189   -0.000464733
      6        6           0.000822628    0.000196888   -0.000726566
      7        1          -0.000646927   -0.000094098   -0.000151930
      8        1          -0.000263973   -0.001100890    0.001409377
      9        1          -0.000217355   -0.000050771    0.000052197
     10        6           0.000890687    0.000250044   -0.000752459
     11        1          -0.001466630    0.000822229    0.000643624
     12        1          -0.000270498   -0.000433887    0.000106762
     13        1          -0.000223919   -0.000155041    0.000028840
     14        1           0.001951596   -0.001626779    0.000519538
     15        8          -0.000523335    0.000685531   -0.000048539
     16        1          -0.000068567   -0.000024179   -0.000154671
     17        1          -0.000241838   -0.000049137   -0.000155326
 -------------------------------------------------------------------
 Cartesian Forces:  Max     0.006985046 RMS     0.001677319

 GradGradGradGradGradGradGradGradGradGradGradGradGradGradGradGradGradGrad
 Berny optimization.
 FormGI is forming the generalized inverse of G from B-inverse, IUseBI=4.
 Internal  Forces:  Max     0.005007097 RMS     0.001015707
 Search for a local minimum.
 Step number   1 out of a maximum of   86
 All quantities printed in internal units (Hartrees-Bohrs-Radians)
 Mixed Optimization -- RFO/linear search
 Second derivative matrix not updated -- first step.
 ITU=  0
     Eigenvalues ---    0.00230   0.00230   0.00230   0.00818   0.00848
     Eigenvalues ---    0.02022   0.02139   0.03749   0.03872   0.04346
     Eigenvalues ---    0.05580   0.05656   0.05748   0.06271   0.06287
     Eigenvalues ---    0.11286   0.11823   0.13848   0.15488   0.16000
     Eigenvalues ---    0.16000   0.16000   0.16000   0.16000   0.16000
     Eigenvalues ---    0.16000   0.16000   0.16882   0.20056   0.21940
     Eigenvalues ---    0.25016   0.32795   0.33041   0.34188   0.34598
     Eigenvalues ---    0.34608   0.34709   0.34760   0.34877   0.34925
     Eigenvalues ---    0.35723   0.35891   0.42531   0.54446   0.54523
 RFO step:  Lambda=-3.88249131D-04 EMin= 2.30000000D-03
 Linear search not attempted -- first point.
 Iteration  1 RMS(Cart)=  0.05210671 RMS(Int)=  0.00179757
 Iteration  2 RMS(Cart)=  0.00286897 RMS(Int)=  0.00020504
 Iteration  3 RMS(Cart)=  0.00000801 RMS(Int)=  0.00020501
 Iteration  4 RMS(Cart)=  0.00000000 RMS(Int)=  0.00020501
 Variable       Old X    -DE/DX   Delta X   Delta X   Delta X     New X
                                 (Linear)    (Quad)   (Total)
    R1        2.74339   0.00501   0.00000   0.01828   0.01880   2.76219
    R2        2.83217  -0.00231   0.00000  -0.01227  -0.01241   2.81976
    R3        2.04518   0.00039   0.00000   0.00108   0.00108   2.04625
    R4        2.04253   0.00041   0.00000   0.00115   0.00115   2.04368
    R5        3.01886  -0.00346   0.00000  -0.01519  -0.01554   3.00332
    R6        2.82713   0.00104   0.00000   0.00317   0.00317   2.83030
    R7        2.82280   0.00102   0.00000   0.00309   0.00309   2.82589
    R8        1.94952   0.00149   0.00000   0.00353   0.00354   1.95305
    R9        2.06149  -0.00037   0.00000  -0.00107  -0.00107   2.06043
   R10        2.06316   0.00104   0.00000   0.00301   0.00301   2.06617
   R11        2.05797  -0.00013   0.00000  -0.00038  -0.00038   2.05759
   R12        2.06333   0.00112   0.00000   0.00322   0.00322   2.06655
   R13        2.06066  -0.00020   0.00000  -0.00056  -0.00056   2.06010
   R14        2.05876  -0.00011   0.00000  -0.00031  -0.00031   2.05845
   R15        2.83799  -0.00107   0.00000  -0.00951  -0.00952   2.82848
   R16        1.82258   0.00006   0.00000   0.00012   0.00012   1.82270
   R17        1.82327  -0.00025   0.00000  -0.00046  -0.00046   1.82281
    A1        2.08541   0.00052   0.00000   0.00243   0.00249   2.08790
    A2        2.09708   0.00012   0.00000   0.00291   0.00285   2.09992
    A3        1.96594   0.00056   0.00000  -0.00114  -0.00111   1.96482
    A4        1.92855   0.00047   0.00000  -0.00219  -0.00204   1.92651
    A5        2.02904  -0.00026   0.00000  -0.00044  -0.00049   2.02855
    A6        2.09597   0.00024   0.00000   0.00081   0.00097   2.09694
    A7        2.09021   0.00003   0.00000   0.00009  -0.00004   2.09017
    A8        1.98273   0.00030   0.00000  -0.00106  -0.00104   1.98169
    A9        1.91800   0.00020   0.00000  -0.00182  -0.00175   1.91625
   A10        2.05843  -0.00014   0.00000   0.00130   0.00125   2.05968
   A11        1.93031  -0.00107   0.00000  -0.00502  -0.00483   1.92547
   A12        1.95668  -0.00075   0.00000   0.00165   0.00185   1.95852
   A13        1.93875  -0.00044   0.00000  -0.00372  -0.00371   1.93504
   A14        1.86173   0.00208   0.00000   0.01348   0.01348   1.87521
   A15        1.96349  -0.00008   0.00000  -0.00006  -0.00008   1.96341
   A16        1.89323  -0.00098   0.00000  -0.00716  -0.00714   1.88609
   A17        1.91223   0.00020   0.00000   0.00045   0.00045   1.91268
   A18        1.89198  -0.00080   0.00000  -0.00305  -0.00307   1.88891
   A19        1.87024   0.00202   0.00000   0.01301   0.01301   1.88325
   A20        1.93914  -0.00044   0.00000  -0.00352  -0.00352   1.93562
   A21        1.95098  -0.00012   0.00000  -0.00043  -0.00045   1.95053
   A22        1.89540  -0.00090   0.00000  -0.00629  -0.00628   1.88912
   A23        1.89396  -0.00079   0.00000  -0.00340  -0.00342   1.89054
   A24        1.91238   0.00022   0.00000   0.00062   0.00062   1.91300
   A25        2.01490  -0.00013   0.00000  -0.00029  -0.00012   2.01478
   A26        1.99852  -0.00012   0.00000  -0.00020  -0.00004   1.99848
   A27        1.87873   0.00009   0.00000   0.00137   0.00162   1.88035
   A28        3.06113  -0.00064   0.00000  -0.06258  -0.06232   2.99880
   A29        3.16471   0.00000   0.00000  -0.08569  -0.08575   3.07896
    D1        0.04071  -0.00027   0.00000  -0.00189  -0.00191   0.03880
    D2       -2.80009  -0.00072   0.00000  -0.01045  -0.01050  -2.81059
    D3        2.76999   0.00071   0.00000   0.01143   0.01152   2.78151
    D4       -0.07082   0.00025   0.00000   0.00288   0.00294  -0.06788
    D5       -0.17446   0.00052   0.00000   0.00668   0.00677  -0.16769
    D6       -2.47627  -0.00002   0.00000   0.01026   0.01024  -2.46603
    D7        0.19968  -0.00007   0.00000   0.00423   0.00409   0.20378
    D8        2.54849   0.00020   0.00000   0.00334   0.00322   2.55171
    D9        2.54226  -0.00044   0.00000  -0.00171  -0.00174   2.54052
   D10       -1.68090  -0.00061   0.00000  -0.00430  -0.00435  -1.68524
   D11        0.39137  -0.00032   0.00000   0.00052   0.00049   0.39186
   D12        1.38635   0.00052   0.00000   0.00391   0.00396   1.39031
   D13       -2.83681   0.00035   0.00000   0.00131   0.00136  -2.83545
   D14       -0.76455   0.00065   0.00000   0.00614   0.00620  -0.75835
   D15       -0.89473   0.00003   0.00000   0.00649   0.00647  -0.88826
   D16        1.16529  -0.00014   0.00000   0.00390   0.00387   1.16916
   D17       -3.04563   0.00016   0.00000   0.00872   0.00871  -3.03692
   D18        1.64420   0.00063   0.00000   0.00630   0.00637   1.65057
   D19       -2.57103   0.00051   0.00000   0.00461   0.00466  -2.56636
   D20       -0.42871   0.00040   0.00000   0.00255   0.00261  -0.42610
   D21        2.76995  -0.00041   0.00000   0.00022   0.00018   2.77013
   D22       -1.44528  -0.00052   0.00000  -0.00147  -0.00153  -1.44680
   D23        0.69704  -0.00064   0.00000  -0.00352  -0.00358   0.69346
   D24       -1.20299   0.00012   0.00000  -0.00200  -0.00199  -1.20499
   D25        0.86497   0.00000   0.00000  -0.00369  -0.00370   0.86127
   D26        3.00728  -0.00011   0.00000  -0.00574  -0.00575   3.00153
   D27        1.51847  -0.00144   0.00000  -0.00693  -0.00608   1.51239
   D28       -2.54071  -0.00134   0.00000  -0.00298  -0.00230  -2.54302
   D29        2.55346   0.00134   0.00000   0.00162   0.00095   2.55440
   D30       -1.50572   0.00144   0.00000   0.00557   0.00473  -1.50100
         Item               Value     Threshold  Converged?
 Maximum Force            0.005007     0.000450     NO 
 RMS     Force            0.001016     0.000300     NO 
 Maximum Displacement     0.182199     0.001800     NO 
 RMS     Displacement     0.052463     0.001200     NO 
 Predicted change in Energy=-1.914120D-04
 GradGradGradGradGradGradGradGradGradGradGradGradGradGradGradGradGradGrad

                          Input orientation:                          
 ---------------------------------------------------------------------
 Center     Atomic      Atomic             Coordinates (Angstroms)
 Number     Number       Type             X           Y           Z
 ---------------------------------------------------------------------
      1          6           0       -0.042222    0.026227   -1.103194
      2          6           0       -0.339526    0.366616    0.286871
      3          8           0        0.962724    0.910545   -0.443961
      4          1           0        0.357195   -0.951702   -1.341191
      5          1           0       -0.533639    0.551292   -1.910901
      6          6           0       -0.046354   -0.613746    1.380552
      7          1           0        0.264577   -0.099335    2.290235
      8          1           0       -0.973505   -1.151963    1.595429
      9          1           0        0.711675   -1.341534    1.095473
     10          6           0       -1.261472    1.503858    0.591665
     11          1           0       -2.266380    1.094652    0.728081
     12          1           0       -0.968997    2.005063    1.514537
     13          1           0       -1.293785    2.226797   -0.222496
     14          1           0        1.806690    0.369604   -0.192464
     15          8           0        2.972649   -0.550376   -0.006765
     16          1           0        3.584656   -0.598946   -0.750676
     17          1           0        3.490790   -0.383856    0.789624
 ---------------------------------------------------------------------
                    Distance matrix (angstroms):
                    1          2          3          4          5
     1  C    0.000000
     2  C    1.461689   0.000000
     3  O    1.492154   1.589286   0.000000
     4  H    1.082830   2.207707   2.153985   0.000000
     5  H    1.081469   2.214044   2.126047   1.837701   0.000000
     6  C    2.564874   1.497730   2.582741   2.772175   3.525397
     7  H    3.409582   2.143715   2.997181   3.731268   4.325507
     8  H    3.088363   2.102459   3.487411   3.230264   3.922871
     9  H    2.696900   2.162553   2.739479   2.492982   3.764556
    10  C    2.557834   1.495394   2.524201   3.519345   2.774881
    11  H    3.072780   2.106531   3.440159   3.918239   3.203414
    12  H    3.409871   2.141940   2.960613   4.319309   3.746547
    13  H    2.680401   2.151822   2.621716   3.752342   2.497169
    14  H    2.089453   2.199094   1.033512   2.272985   2.909154
    15  O    3.259460   3.449289   2.522941   2.963504   4.139259
    16  H    3.697209   4.172291   3.040915   3.299947   4.430521
    17  H    4.029033   3.935389   3.096502   3.831742   4.935926
                    6          7          8          9         10
     6  C    0.000000
     7  H    1.090330   0.000000
     8  H    1.093370   1.767379   0.000000
     9  H    1.088831   1.780565   1.767972   0.000000
    10  C    2.565755   2.790016   2.853743   3.499055   0.000000
    11  H    2.876257   3.204945   2.733331   3.865073   1.093572
    12  H    2.779817   2.559668   3.158065   3.768287   1.090155
    13  H    3.492067   3.762073   3.850123   4.300221   1.089286
    14  H    2.622047   2.960036   3.638849   2.405377   3.363779
    15  O    3.323108   3.579567   4.301287   2.636828   4.744025
    16  H    4.210296   4.529865   5.156246   3.494814   5.450561
    17  H    3.593527   3.569487   4.601005   2.955363   5.117289
                   11         12         13         14         15
    11  H    0.000000
    12  H    1.769340   0.000000
    13  H    1.769545   1.780993   0.000000
    14  H    4.238278   3.645959   3.614279   0.000000
    15  O    5.540175   4.937732   5.095261   1.496766   0.000000
    16  H    6.268143   5.713826   5.662418   2.100203   0.964529
    17  H    5.944307   5.110982   5.543650   2.090070   0.964590
                   16         17
    16  H    0.000000
    17  H    1.558075   0.000000
 Stoichiometry    C4H11O2(1+)
 Framework group  C1[X(C4H11O2)]
 Deg. of freedom    45
 Full point group                 C1      NOp   1
 Largest Abelian subgroup         C1      NOp   1
 Largest concise Abelian subgroup C1      NOp   1
                         Standard orientation:                         
 ---------------------------------------------------------------------
 Center     Atomic      Atomic             Coordinates (Angstroms)
 Number     Number       Type             X           Y           Z
 ---------------------------------------------------------------------
      1          6           0       -0.253788   -0.986713    0.915313
      2          6           0       -0.843473    0.107187    0.145774
      3          8           0        0.276941   -0.836182   -0.471119
      4          1           0        0.490370   -0.769087    1.671216
      5          1           0       -0.778374   -1.926865    1.017773
      6          6           0       -0.384351    1.515509    0.367209
      7          1           0       -0.403301    2.081286   -0.564648
      8          1           0       -1.086496    1.983632    1.062415
      9          1           0        0.611708    1.565118    0.804198
     10          6           0       -2.136783   -0.104837   -0.574364
     11          1           0       -2.944869    0.237629    0.078027
     12          1           0       -2.170097    0.479324   -1.494193
     13          1           0       -2.303852   -1.156653   -0.803089
     14          1           0        1.212079   -0.396537   -0.451708
     15          8           0        2.586870    0.145127   -0.213262
     16          1           0        3.275688   -0.516826   -0.080360
     17          1           0        2.897032    0.760538   -0.888172
 ---------------------------------------------------------------------
 Rotational constants (GHZ):           5.1151954           2.0519086           1.7726302
 Standard basis: 6-311G(d) (5D, 7F)
 There are   147 symmetry adapted cartesian basis functions of A   symmetry.
 There are   141 symmetry adapted basis functions of A   symmetry.
   141 basis functions,   247 primitive gaussians,   147 cartesian basis functions
    25 alpha electrons       25 beta electrons
       nuclear repulsion energy       267.2468036792 Hartrees.
 NAtoms=   17 NActive=   17 NUniq=   17 SFac= 1.00D+00 NAtFMM=   60 NAOKFM=F Big=F
 Integral buffers will be    131072 words long.
 Raffenetti 2 integral format.
 Two-electron integral symmetry is turned on.
 Nuclear repulsion after empirical dispersion term =      267.2271079856 Hartrees.
 ------------------------------------------------------------------------------
 Polarizable Continuum Model (PCM)
 =================================
 Model                : PCM.
 Atomic radii         : UFF (Universal Force Field).
 Polarization charges : Total charges.
 Charge compensation  : None.
 Solution method      : On-the-fly selection.
 Cavity type          : Scaled VdW (van der Waals Surface) (Alpha=1.100).
 Cavity algorithm     : GePol (No added spheres)
                        Default sphere list used, NSphG=   17.
                        Lebedev-Laikov grids with approx.  5.0 points / Ang**2.
                        Smoothing algorithm: York/Karplus (Gamma=1.0000).
                        Polarization charges: spherical gaussians, with
                                              point-specific exponents (IZeta= 3).
                        Self-potential: point-specific (ISelfS= 7).
                        Self-field    : sphere-specific E.n sum rule (ISelfD= 2).
 1st derivatives      : Analytical E(r).r(x)/FMM algorithm (CHGder, D1EAlg=3).
                        Cavity 1st derivative terms included.
 Solvent              : Water, Eps=  78.355300 Eps(inf)=   1.777849
 ------------------------------------------------------------------------------
 Spheres list:
 ISph  on   Nord     Re0    Alpha      Xe            Ye            Ze
    1   C      1    1.9255  1.100     -0.253788     -0.986713      0.915313
    2   C      2    1.9255  1.100     -0.843473      0.107187      0.145774
    3   O      3    1.7500  1.100      0.276941     -0.836182     -0.471119
    4   H      4    1.4430  1.100      0.490370     -0.769087      1.671216
    5   H      5    1.4430  1.100     -0.778374     -1.926865      1.017773
    6   C      6    1.9255  1.100     -0.384351      1.515509      0.367209
    7   H      7    1.4430  1.100     -0.403301      2.081286     -0.564648
    8   H      8    1.4430  1.100     -1.086496      1.983632      1.062415
    9   H      9    1.4430  1.100      0.611708      1.565118      0.804198
   10   C     10    1.9255  1.100     -2.136783     -0.104837     -0.574364
   11   H     11    1.4430  1.100     -2.944869      0.237629      0.078027
   12   H     12    1.4430  1.100     -2.170097      0.479324     -1.494193
   13   H     13    1.4430  1.100     -2.303852     -1.156653     -0.803089
   14   H     14    1.4430  1.100      1.212079     -0.396537     -0.451708
   15   O     15    1.7500  1.100      2.586870      0.145127     -0.213262
   16   H     16    1.4430  1.100      3.275688     -0.516826     -0.080360
   17   H     17    1.4430  1.100      2.897032      0.760538     -0.888172
 ------------------------------------------------------------------------------
 One-electron integrals computed using PRISM.
 NBasis=   141 RedAO= T EigKep=  1.93D-03  NBF=   141
 NBsUse=   141 1.00D-06 EigRej= -1.00D+00 NBFU=   141
 Initial guess from the checkpoint file:  "/home/kimariyb/g16/scratch/Gau-165235.chk"
 B after Tr=    -0.000000    0.000000    0.000000
         Rot=    0.999905    0.009599   -0.003267   -0.009388 Ang=   1.58 deg.
 ExpMin= 1.03D-01 ExpMax= 8.59D+03 ExpMxC= 1.30D+03 IAcc=2 IRadAn=         4 AccDes= 0.00D+00
 Harris functional with IExCor=  402 and IRadAn=       4 diagonalized for initial guess.
 HarFok:  IExCor=  402 AccDes= 0.00D+00 IRadAn=         4 IDoV= 1 UseB2=F ITyADJ=14
 ICtDFT=  3500011 ScaDFX=  1.000000  1.000000  1.000000  1.000000
 FoFCou: FMM=F IPFlag=           0 FMFlag=      100000 FMFlg1=           0
         NFxFlg=           0 DoJE=T BraDBF=F KetDBF=T FulRan=T
         wScrn=  0.000000 ICntrl=       500 IOpCl=  0 I1Cent=   200000004 NGrid=           0
         NMat0=    1 NMatS0=      1 NMatT0=    0 NMatD0=    1 NMtDS0=    0 NMtDT0=    0
 Petite list used in FoFCou.
 Requested convergence on RMS density matrix=1.00D-08 within 128 cycles.
 Requested convergence on MAX density matrix=1.00D-06.
 Requested convergence on             energy=1.00D-06.
 No special actions if energy rises.
 Inv3:  Mode=1 IEnd=     5211372.
 Iteration    1 A*A^-1 deviation from unit magnitude is 2.66D-15 for   1147.
 Iteration    1 A*A^-1 deviation from orthogonality  is 1.99D-15 for    780     80.
 Iteration    1 A^-1*A deviation from unit magnitude is 2.89D-15 for    372.
 Iteration    1 A^-1*A deviation from orthogonality  is 8.79D-13 for    813    780.
 Error on total polarization charges =  0.00606
 SCF Done:  E(RB3LYP) =  -309.383051664     A.U. after    9 cycles
            NFock=  9  Conv=0.87D-08     -V/T= 2.0036
 D1PCM: PCM CHGder 1st derivatives, ID1Alg=3 FixD1E=F DoIter=F DoCFld=F I1PDM=0.
 Calling FoFJK, ICntrl=      2127 FMM=F ISym2X=0 I1Cent= 0 IOpClX= 0 NMat=1 NMatS=1 NMatT=0.
 ***** Axes restored to original set *****
 -------------------------------------------------------------------
 Center     Atomic                   Forces (Hartrees/Bohr)
 Number     Number              X              Y              Z
 -------------------------------------------------------------------
      1        6           0.001333495    0.000849458   -0.000040435
      2        6           0.002028102    0.001523545   -0.000830338
      3        8          -0.004205006   -0.000745199    0.002509809
      4        1          -0.000122057   -0.000063069    0.000308616
      5        1          -0.000400208   -0.000132100    0.000155226
      6        6          -0.000131812   -0.000047741   -0.000692596
      7        1          -0.000039186    0.000132118    0.000085718
      8        1           0.000303443   -0.000089417    0.000163308
      9        1           0.000066668   -0.000225666   -0.000145980
     10        6          -0.000260687   -0.000449486   -0.000479003
     11        1           0.000047976    0.000261520    0.000136351
     12        1           0.000090183   -0.000023751    0.000180081
     13        1           0.000038212   -0.000004344   -0.000015799
     14        1           0.002179219   -0.001504850   -0.002710885
     15        8          -0.000900698    0.000527291    0.001573822
     16        1          -0.000108737    0.000197325   -0.000116470
     17        1           0.000081096   -0.000205634   -0.000081425
 -------------------------------------------------------------------
 Cartesian Forces:  Max     0.004205006 RMS     0.001027913

 GradGradGradGradGradGradGradGradGradGradGradGradGradGradGradGradGradGrad
 Berny optimization.
 Using GEDIIS/GDIIS optimizer.
 FormGI is forming the generalized inverse of G from B-inverse, IUseBI=4.
 Internal  Forces:  Max     0.003266808 RMS     0.000590497
 Search for a local minimum.
 Step number   2 out of a maximum of   86
 All quantities printed in internal units (Hartrees-Bohrs-Radians)
 Mixed Optimization -- En-DIIS/RFO-DIIS
 Update second derivatives using D2CorX and points    1    2
 DE= -3.62D-05 DEPred=-1.91D-04 R= 1.89D-01
 Trust test= 1.89D-01 RLast= 1.16D-01 DXMaxT set to 3.00D-01
 ITU=  0  0
 Use linear search instead of GDIIS.
     Eigenvalues ---    0.00226   0.00230   0.00737   0.00847   0.00866
     Eigenvalues ---    0.02062   0.02179   0.03743   0.03863   0.04482
     Eigenvalues ---    0.05467   0.05634   0.05732   0.06128   0.06220
     Eigenvalues ---    0.08514   0.11824   0.12452   0.14147   0.15619
     Eigenvalues ---    0.16000   0.16000   0.16000   0.16000   0.16000
     Eigenvalues ---    0.16000   0.16084   0.16964   0.18422   0.20096
     Eigenvalues ---    0.23951   0.32816   0.33041   0.34538   0.34592
     Eigenvalues ---    0.34650   0.34726   0.34814   0.34876   0.35051
     Eigenvalues ---    0.35724   0.35884   0.42360   0.54440   0.54523
 RFO step:  Lambda=-1.51392774D-03 EMin= 2.25895722D-03
 Quartic linear search produced a step of -0.45497.
 Maximum step size (   0.300) exceeded in Quadratic search.
    -- Step size scaled by   0.826
 Iteration  1 RMS(Cart)=  0.10281193 RMS(Int)=  0.01275087
 Iteration  2 RMS(Cart)=  0.04929856 RMS(Int)=  0.00153619
 Iteration  3 RMS(Cart)=  0.00184533 RMS(Int)=  0.00091128
 Iteration  4 RMS(Cart)=  0.00000228 RMS(Int)=  0.00091128
 Iteration  5 RMS(Cart)=  0.00000002 RMS(Int)=  0.00091128
 Variable       Old X    -DE/DX   Delta X   Delta X   Delta X     New X
                                 (Linear)    (Quad)   (Total)
    R1        2.76219  -0.00041  -0.00855   0.06472   0.05833   2.82052
    R2        2.81976  -0.00096   0.00565  -0.04427  -0.03902   2.78075
    R3        2.04625  -0.00006  -0.00049   0.00366   0.00315   2.04941
    R4        2.04368  -0.00001  -0.00053   0.00400   0.00348   2.04716
    R5        3.00332  -0.00261   0.00707  -0.05946  -0.05409   2.94923
    R6        2.83030  -0.00024  -0.00144   0.01066   0.00922   2.83952
    R7        2.82589  -0.00016  -0.00141   0.01051   0.00910   2.83499
    R8        1.95305   0.00122  -0.00161   0.01370   0.01216   1.96521
    R9        2.06043   0.00013   0.00048  -0.00352  -0.00304   2.05739
   R10        2.06617  -0.00018  -0.00137   0.01021   0.00884   2.07501
   R11        2.05759   0.00023   0.00017  -0.00100  -0.00083   2.05676
   R12        2.06655  -0.00012  -0.00147   0.01104   0.00957   2.07612
   R13        2.06010   0.00015   0.00026  -0.00174  -0.00148   2.05861
   R14        2.05845   0.00002   0.00014  -0.00104  -0.00090   2.05755
   R15        2.82848  -0.00087   0.00433  -0.03647  -0.03218   2.79629
   R16        1.82270   0.00001  -0.00005   0.00041   0.00035   1.82305
   R17        1.82281  -0.00005   0.00021  -0.00166  -0.00145   1.82137
    A1        2.08790  -0.00029  -0.00113   0.00697   0.00616   2.09406
    A2        2.09992   0.00003  -0.00129   0.00846   0.00663   2.10655
    A3        1.96482   0.00008   0.00051  -0.00249  -0.00169   1.96313
    A4        1.92651   0.00061   0.00093  -0.00396  -0.00232   1.92419
    A5        2.02855   0.00019   0.00022  -0.00055  -0.00056   2.02799
    A6        2.09694  -0.00058  -0.00044   0.00163   0.00173   2.09867
    A7        2.09017   0.00001   0.00002  -0.00018  -0.00058   2.08959
    A8        1.98169  -0.00057   0.00047  -0.00446  -0.00382   1.97787
    A9        1.91625   0.00006   0.00080  -0.00522  -0.00403   1.91222
   A10        2.05968   0.00057  -0.00057   0.00555   0.00467   2.06434
   A11        1.92547  -0.00044   0.00220  -0.01650  -0.01398   1.91149
   A12        1.95852  -0.00044  -0.00084   0.00356   0.00382   1.96234
   A13        1.93504  -0.00018   0.00169  -0.01333  -0.01159   1.92345
   A14        1.87521   0.00047  -0.00613   0.04798   0.04179   1.91700
   A15        1.96341  -0.00009   0.00003  -0.00061  -0.00070   1.96271
   A16        1.88609  -0.00013   0.00325  -0.02496  -0.02157   1.86451
   A17        1.91268   0.00013  -0.00020   0.00193   0.00170   1.91438
   A18        1.88891  -0.00020   0.00140  -0.01138  -0.01020   1.87871
   A19        1.88325   0.00040  -0.00592   0.04623   0.04027   1.92352
   A20        1.93562  -0.00020   0.00160  -0.01286  -0.01122   1.92440
   A21        1.95053  -0.00008   0.00020  -0.00179  -0.00170   1.94883
   A22        1.88912  -0.00013   0.00286  -0.02211  -0.01914   1.86997
   A23        1.89054  -0.00008   0.00156  -0.01190  -0.01052   1.88002
   A24        1.91300   0.00009  -0.00028   0.00225   0.00194   1.91494
   A25        2.01478  -0.00049   0.00005  -0.00249  -0.00183   2.01295
   A26        1.99848   0.00034   0.00002   0.00030   0.00097   1.99946
   A27        1.88035  -0.00007  -0.00074   0.00447   0.00465   1.88500
   A28        2.99880   0.00130   0.02835   0.06915   0.09821   3.09702
   A29        3.07896   0.00327   0.03901   0.25826   0.29662   3.37558
    D1        0.03880   0.00012   0.00087  -0.00556  -0.00484   0.03396
    D2       -2.81059   0.00002   0.00478  -0.03385  -0.02939  -2.83998
    D3        2.78151  -0.00002  -0.00524   0.03679   0.03195   2.81346
    D4       -0.06788  -0.00011  -0.00134   0.00851   0.00740  -0.06048
    D5       -0.16769   0.00040  -0.00308   0.02257   0.02015  -0.14754
    D6       -2.46603  -0.00047  -0.00466   0.02901   0.02443  -2.44160
    D7        0.20378  -0.00023  -0.00186   0.01002   0.00770   0.21147
    D8        2.55171   0.00012  -0.00146   0.00878   0.00696   2.55867
    D9        2.54052  -0.00005   0.00079  -0.00773  -0.00718   2.53334
   D10       -1.68524  -0.00003   0.00198  -0.01659  -0.01499  -1.70024
   D11        0.39186  -0.00002  -0.00022   0.00011  -0.00036   0.39151
   D12        1.39031   0.00002  -0.00180   0.01208   0.01069   1.40100
   D13       -2.83545   0.00004  -0.00062   0.00322   0.00287  -2.83258
   D14       -0.75835   0.00005  -0.00282   0.01991   0.01751  -0.74084
   D15       -0.88826  -0.00005  -0.00295   0.01914   0.01616  -0.87210
   D16        1.16916  -0.00003  -0.00176   0.01028   0.00835   1.17751
   D17       -3.03692  -0.00002  -0.00396   0.02698   0.02299  -3.01393
   D18        1.65057  -0.00009  -0.00290   0.02206   0.01958   1.67015
   D19       -2.56636  -0.00011  -0.00212   0.01597   0.01416  -2.55220
   D20       -0.42610  -0.00019  -0.00119   0.00837   0.00749  -0.41862
   D21        2.77013   0.00024  -0.00008   0.00172   0.00137   2.77150
   D22       -1.44680   0.00021   0.00069  -0.00436  -0.00405  -1.45085
   D23        0.69346   0.00014   0.00163  -0.01197  -0.01072   0.68273
   D24       -1.20499   0.00001   0.00091  -0.00501  -0.00402  -1.20901
   D25        0.86127  -0.00002   0.00168  -0.01109  -0.00945   0.85182
   D26        3.00153  -0.00009   0.00262  -0.01870  -0.01612   2.98541
   D27        1.51239  -0.00022   0.00277  -0.03588  -0.02940   1.48299
   D28       -2.54302  -0.00019   0.00105  -0.00024   0.00390  -2.53912
   D29        2.55440   0.00026  -0.00043   0.00656   0.00302   2.55743
   D30       -1.50100   0.00029  -0.00215   0.04221   0.03632  -1.46468
         Item               Value     Threshold  Converged?
 Maximum Force            0.003267     0.000450     NO 
 RMS     Force            0.000590     0.000300     NO 
 Maximum Displacement     0.522067     0.001800     NO 
 RMS     Displacement     0.149268     0.001200     NO 
 Predicted change in Energy=-8.404387D-04
 GradGradGradGradGradGradGradGradGradGradGradGradGradGradGradGradGradGrad

                          Input orientation:                          
 ---------------------------------------------------------------------
 Center     Atomic      Atomic             Coordinates (Angstroms)
 Number     Number       Type             X           Y           Z
 ---------------------------------------------------------------------
      1          6           0       -0.092694    0.034285   -1.187951
      2          6           0       -0.318286    0.360390    0.250966
      3          8           0        0.905602    0.906268   -0.548899
      4          1           0        0.317261   -0.930116   -1.467248
      5          1           0       -0.618462    0.573972   -1.966325
      6          6           0        0.061117   -0.626032    1.319073
      7          1           0        0.418615   -0.102761    2.204343
      8          1           0       -0.822271   -1.201880    1.625230
      9          1           0        0.815829   -1.334082    0.981921
     10          6           0       -1.223038    1.497803    0.622921
     11          1           0       -2.233997    1.124430    0.836358
     12          1           0       -0.863177    1.985599    1.528066
     13          1           0       -1.302284    2.227750   -0.181070
     14          1           0        1.773717    0.364016   -0.364977
     15          8           0        2.831112   -0.533031    0.151587
     16          1           0        3.533376   -0.746642   -0.474411
     17          1           0        3.242657   -0.236771    0.971233
 ---------------------------------------------------------------------
                    Distance matrix (angstroms):
                    1          2          3          4          5
     1  C    0.000000
     2  C    1.492554   0.000000
     3  O    1.471508   1.560663   0.000000
     4  H    1.084499   2.240889   2.135840   0.000000
     5  H    1.083310   2.247688   2.107673   1.840362   0.000000
     6  C    2.597084   1.502608   2.559379   2.814545   3.563100
     7  H    3.433348   2.138508   2.972480   3.765019   4.350628
     8  H    3.158223   2.140862   3.486641   3.306933   4.011789
     9  H    2.721431   2.166045   2.714892   2.531835   3.793417
    10  C    2.588208   1.500211   2.500836   3.554731   2.814813
    11  H    3.141882   2.143919   3.438548   4.004582   3.281462
    12  H    3.431912   2.137567   2.933823   4.343585   3.776684
    13  H    2.699668   2.154515   2.599302   3.774823   2.527791
    14  H    2.066276   2.180798   1.039947   2.238535   2.886332
    15  O    3.265708   3.275177   2.503967   3.016247   4.196494
    16  H    3.777217   4.072713   3.105295   3.370872   4.605169
    17  H    3.982476   3.681808   3.013166   3.871028   4.918820
                    6          7          8          9         10
     6  C    0.000000
     7  H    1.088724   0.000000
     8  H    1.098046   1.755913   0.000000
     9  H    1.088391   1.779956   1.764849   0.000000
    10  C    2.577665   2.785269   2.907494   3.507909   0.000000
    11  H    2.926547   3.227032   2.833197   3.920065   1.098636
    12  H    2.778240   2.541966   3.189222   3.760002   1.089372
    13  H    3.500480   3.752728   3.905828   4.304137   1.088808
    14  H    2.597927   2.942038   3.626583   2.369646   3.352902
    15  O    3.007415   3.196729   3.995771   2.322176   4.558790
    16  H    3.909951   4.158369   4.856684   3.138638   5.372629
    17  H    3.224084   3.084434   4.228805   2.663401   4.803384
                   11         12         13         14         15
    11  H    0.000000
    12  H    1.760460   0.000000
    13  H    1.766512   1.781178   0.000000
    14  H    4.252436   3.628547   3.601264   0.000000
    15  O    5.373212   4.678243   4.981719   1.479735   0.000000
    16  H    6.203355   5.550201   5.684774   2.083731   0.964717
    17  H    5.644892   4.701794   5.296994   2.074654   0.963825
                   16         17
    16  H    0.000000
    17  H    1.560247   0.000000
 Stoichiometry    C4H11O2(1+)
 Framework group  C1[X(C4H11O2)]
 Deg. of freedom    45
 Full point group                 C1      NOp   1
 Largest Abelian subgroup         C1      NOp   1
 Largest concise Abelian subgroup C1      NOp   1
                         Standard orientation:                         
 ---------------------------------------------------------------------
 Center     Atomic      Atomic             Coordinates (Angstroms)
 Number     Number       Type             X           Y           Z
 ---------------------------------------------------------------------
      1          6           0       -0.348716   -1.119870    0.856201
      2          6           0       -0.794389    0.125498    0.164716
      3          8           0        0.186524   -0.893051   -0.495615
      4          1           0        0.419524   -1.070311    1.620065
      5          1           0       -0.977882   -2.001680    0.867244
      6          6           0       -0.151915    1.443936    0.491489
      7          1           0       -0.092614    2.064778   -0.400900
      8          1           0       -0.769033    1.989309    1.217739
      9          1           0        0.840223    1.327186    0.923493
     10          6           0       -2.091608    0.134378   -0.588792
     11          1           0       -2.896311    0.530616    0.045599
     12          1           0       -2.018130    0.786050   -1.458652
     13          1           0       -2.380452   -0.867151   -0.903454
     14          1           0        1.178635   -0.588272   -0.429918
     15          8           0        2.454508    0.139106   -0.249133
     16          1           0        3.231996   -0.417122   -0.119512
     17          1           0        2.655555    0.774504   -0.945414
 ---------------------------------------------------------------------
 Rotational constants (GHZ):           4.9257824           2.2018535           1.8713847
 Standard basis: 6-311G(d) (5D, 7F)
 There are   147 symmetry adapted cartesian basis functions of A   symmetry.
 There are   141 symmetry adapted basis functions of A   symmetry.
   141 basis functions,   247 primitive gaussians,   147 cartesian basis functions
    25 alpha electrons       25 beta electrons
       nuclear repulsion energy       269.5948680080 Hartrees.
 NAtoms=   17 NActive=   17 NUniq=   17 SFac= 1.00D+00 NAtFMM=   60 NAOKFM=F Big=F
 Integral buffers will be    131072 words long.
 Raffenetti 2 integral format.
 Two-electron integral symmetry is turned on.
 Nuclear repulsion after empirical dispersion term =      269.5748723806 Hartrees.
 ------------------------------------------------------------------------------
 Polarizable Continuum Model (PCM)
 =================================
 Model                : PCM.
 Atomic radii         : UFF (Universal Force Field).
 Polarization charges : Total charges.
 Charge compensation  : None.
 Solution method      : On-the-fly selection.
 Cavity type          : Scaled VdW (van der Waals Surface) (Alpha=1.100).
 Cavity algorithm     : GePol (No added spheres)
                        Default sphere list used, NSphG=   17.
                        Lebedev-Laikov grids with approx.  5.0 points / Ang**2.
                        Smoothing algorithm: York/Karplus (Gamma=1.0000).
                        Polarization charges: spherical gaussians, with
                                              point-specific exponents (IZeta= 3).
                        Self-potential: point-specific (ISelfS= 7).
                        Self-field    : sphere-specific E.n sum rule (ISelfD= 2).
 1st derivatives      : Analytical E(r).r(x)/FMM algorithm (CHGder, D1EAlg=3).
                        Cavity 1st derivative terms included.
 Solvent              : Water, Eps=  78.355300 Eps(inf)=   1.777849
 ------------------------------------------------------------------------------
 Spheres list:
 ISph  on   Nord     Re0    Alpha      Xe            Ye            Ze
    1   C      1    1.9255  1.100     -0.348716     -1.119870      0.856201
    2   C      2    1.9255  1.100     -0.794389      0.125498      0.164716
    3   O      3    1.7500  1.100      0.186524     -0.893051     -0.495615
    4   H      4    1.4430  1.100      0.419524     -1.070311      1.620065
    5   H      5    1.4430  1.100     -0.977882     -2.001680      0.867244
    6   C      6    1.9255  1.100     -0.151915      1.443936      0.491489
    7   H      7    1.4430  1.100     -0.092614      2.064778     -0.400900
    8   H      8    1.4430  1.100     -0.769033      1.989309      1.217739
    9   H      9    1.4430  1.100      0.840223      1.327186      0.923493
   10   C     10    1.9255  1.100     -2.091608      0.134378     -0.588792
   11   H     11    1.4430  1.100     -2.896311      0.530616      0.045599
   12   H     12    1.4430  1.100     -2.018130      0.786050     -1.458652
   13   H     13    1.4430  1.100     -2.380452     -0.867151     -0.903454
   14   H     14    1.4430  1.100      1.178635     -0.588272     -0.429918
   15   O     15    1.7500  1.100      2.454508      0.139106     -0.249133
   16   H     16    1.4430  1.100      3.231996     -0.417122     -0.119512
   17   H     17    1.4430  1.100      2.655555      0.774504     -0.945414
 ------------------------------------------------------------------------------
 One-electron integrals computed using PRISM.
 NBasis=   141 RedAO= T EigKep=  1.98D-03  NBF=   141
 NBsUse=   141 1.00D-06 EigRej= -1.00D+00 NBFU=   141
 Initial guess from the checkpoint file:  "/home/kimariyb/g16/scratch/Gau-165235.chk"
 B after Tr=     0.000000    0.000000   -0.000000
         Rot=    0.998481   -0.044810   -0.005298    0.031623 Ang=  -6.32 deg.
 ExpMin= 1.03D-01 ExpMax= 8.59D+03 ExpMxC= 1.30D+03 IAcc=2 IRadAn=         4 AccDes= 0.00D+00
 Harris functional with IExCor=  402 and IRadAn=       4 diagonalized for initial guess.
 HarFok:  IExCor=  402 AccDes= 0.00D+00 IRadAn=         4 IDoV= 1 UseB2=F ITyADJ=14
 ICtDFT=  3500011 ScaDFX=  1.000000  1.000000  1.000000  1.000000
 FoFCou: FMM=F IPFlag=           0 FMFlag=      100000 FMFlg1=           0
         NFxFlg=           0 DoJE=T BraDBF=F KetDBF=T FulRan=T
         wScrn=  0.000000 ICntrl=       500 IOpCl=  0 I1Cent=   200000004 NGrid=           0
         NMat0=    1 NMatS0=      1 NMatT0=    0 NMatD0=    1 NMtDS0=    0 NMtDT0=    0
 Petite list used in FoFCou.
 Requested convergence on RMS density matrix=1.00D-08 within 128 cycles.
 Requested convergence on MAX density matrix=1.00D-06.
 Requested convergence on             energy=1.00D-06.
 No special actions if energy rises.
 Inv3:  Mode=1 IEnd=     5164032.
 Iteration    1 A*A^-1 deviation from unit magnitude is 2.89D-15 for    287.
 Iteration    1 A*A^-1 deviation from orthogonality  is 2.25D-15 for    847      4.
 Iteration    1 A^-1*A deviation from unit magnitude is 2.89D-15 for   1212.
 Iteration    1 A^-1*A deviation from orthogonality  is 1.54D-14 for    806    781.
 Error on total polarization charges =  0.00608
 SCF Done:  E(RB3LYP) =  -309.380640239     A.U. after   11 cycles
            NFock= 11  Conv=0.78D-08     -V/T= 2.0037
 D1PCM: PCM CHGder 1st derivatives, ID1Alg=3 FixD1E=F DoIter=F DoCFld=F I1PDM=0.
 Calling FoFJK, ICntrl=      2127 FMM=F ISym2X=0 I1Cent= 0 IOpClX= 0 NMat=1 NMatS=1 NMatT=0.
 ***** Axes restored to original set *****
 -------------------------------------------------------------------
 Center     Atomic                   Forces (Hartrees/Bohr)
 Number     Number              X              Y              Z
 -------------------------------------------------------------------
      1        6          -0.007406850    0.001317659    0.010068817
      2        6          -0.001610625   -0.005810313   -0.013055813
      3        8           0.008617687    0.003649427   -0.001202778
      4        1          -0.001829361    0.000191307    0.001602417
      5        1          -0.001535013   -0.001484300    0.001935339
      6        6          -0.004395733   -0.003528675    0.000180232
      7        1           0.001804313    0.000966727    0.000986901
      8        1           0.000522596    0.003787610   -0.003573751
      9        1          -0.000672133    0.000795104    0.000462431
     10        6          -0.003343879   -0.001646542    0.000266538
     11        1           0.004470926   -0.001923009   -0.001653387
     12        1           0.001133714    0.001221361    0.000236327
     13        1           0.000598434    0.000548488   -0.000199108
     14        1          -0.000512607    0.001818028    0.007943018
     15        8           0.002758437   -0.000366678   -0.005187876
     16        1           0.000692289   -0.000252274    0.000593048
     17        1           0.000707804    0.000716080    0.000597646
 -------------------------------------------------------------------
 Cartesian Forces:  Max     0.013055813 RMS     0.003654784

 GradGradGradGradGradGradGradGradGradGradGradGradGradGradGradGradGradGrad
 Berny optimization.
 Using GEDIIS/GDIIS optimizer.
 FormGI is forming the generalized inverse of G from B-inverse, IUseBI=4.
 Internal  Forces:  Max     0.015351865 RMS     0.003455774
 Search for a local minimum.
 Step number   3 out of a maximum of   86
 All quantities printed in internal units (Hartrees-Bohrs-Radians)
 Mixed Optimization -- RFO/linear search
 Update second derivatives using D2CorX and points    1    3    2
 DE=  2.41D-03 DEPred=-8.40D-04 R=-2.87D+00
 Trust test=-2.87D+00 RLast= 3.47D-01 DXMaxT set to 1.50D-01
 ITU= -1  0  0
 Use linear search instead of GDIIS.
     Eigenvalues ---    0.00223   0.00230   0.00820   0.00849   0.02083
     Eigenvalues ---    0.02160   0.03267   0.03735   0.04227   0.04353
     Eigenvalues ---    0.05435   0.05704   0.05837   0.06016   0.06035
     Eigenvalues ---    0.10519   0.11997   0.13696   0.14420   0.15985
     Eigenvalues ---    0.16000   0.16000   0.16000   0.16000   0.16000
     Eigenvalues ---    0.16047   0.16640   0.17231   0.19426   0.21552
     Eigenvalues ---    0.24287   0.32828   0.33072   0.34542   0.34604
     Eigenvalues ---    0.34691   0.34750   0.34876   0.34961   0.35586
     Eigenvalues ---    0.35829   0.35975   0.42773   0.54453   0.54524
 RFO step:  Lambda=-6.73034428D-04 EMin= 2.23477730D-03
 Quartic linear search produced a step of -0.80103.
 Maximum step size (   0.150) exceeded in Quadratic search.
    -- Step size scaled by   0.379
 Iteration  1 RMS(Cart)=  0.10684355 RMS(Int)=  0.00749110
 Iteration  2 RMS(Cart)=  0.02162131 RMS(Int)=  0.00117949
 Iteration  3 RMS(Cart)=  0.00051674 RMS(Int)=  0.00114247
 Iteration  4 RMS(Cart)=  0.00000085 RMS(Int)=  0.00114247
 Variable       Old X    -DE/DX   Delta X   Delta X   Delta X     New X
                                 (Linear)    (Quad)   (Total)
    R1        2.82052  -0.01535  -0.04672   0.00464  -0.04495   2.77557
    R2        2.78075   0.00485   0.03125  -0.00403   0.02800   2.80874
    R3        2.04941  -0.00149  -0.00253   0.00012  -0.00241   2.04700
    R4        2.04716  -0.00139  -0.00279   0.00022  -0.00257   2.04459
    R5        2.94923   0.00616   0.04333  -0.00869   0.03657   2.98580
    R6        2.83952  -0.00340  -0.00738   0.00044  -0.00694   2.83257
    R7        2.83499  -0.00342  -0.00729   0.00048  -0.00681   2.82817
    R8        1.96521   0.00301  -0.00974   0.00287  -0.00685   1.95836
    R9        2.05739   0.00186   0.00243   0.00003   0.00246   2.05985
   R10        2.07501  -0.00340  -0.00708   0.00046  -0.00662   2.06839
   R11        2.05676  -0.00113   0.00067  -0.00023   0.00044   2.05720
   R12        2.07612  -0.00378  -0.00767   0.00053  -0.00714   2.06898
   R13        2.05861   0.00112   0.00119   0.00011   0.00129   2.05991
   R14        2.05755   0.00047   0.00072  -0.00002   0.00070   2.05825
   R15        2.79629   0.00148   0.02578  -0.00540   0.02037   2.81666
   R16        1.82305   0.00018  -0.00028   0.00008  -0.00021   1.82284
   R17        1.82137   0.00103   0.00116  -0.00009   0.00107   1.82243
    A1        2.09406   0.00068  -0.00494  -0.00082  -0.00640   2.08766
    A2        2.10655  -0.00314  -0.00531  -0.00047  -0.00531   2.10124
    A3        1.96313   0.00030   0.00135   0.00156   0.00280   1.96593
    A4        1.92419  -0.00178   0.00185   0.00199   0.00312   1.92731
    A5        2.02799   0.00107   0.00045   0.00091   0.00145   2.02944
    A6        2.09867   0.00112  -0.00139  -0.00059  -0.00283   2.09583
    A7        2.08959  -0.00180   0.00046  -0.00041   0.00068   2.09026
    A8        1.97787   0.00130   0.00306   0.00132   0.00434   1.98221
    A9        1.91222  -0.00231   0.00323  -0.00079   0.00205   1.91427
   A10        2.06434   0.00010  -0.00374   0.00083  -0.00269   2.06165
   A11        1.91149   0.00742   0.01120   0.00046   0.01050   1.92199
   A12        1.96234   0.00831  -0.00306   0.00544   0.00100   1.96333
[...]
   aniso      0.135743D+02      0.201151D+01      0.223810D+01
   xx         0.644817D+02      0.955520D+01      0.106316D+02
   yx         0.419419D+01      0.621515D+00      0.691529D+00
   yy         0.572208D+02      0.847925D+01      0.943444D+01
   zx        -0.180240D+01     -0.267088D+00     -0.297176D+00
   zy        -0.259023D+00     -0.383832D-01     -0.427071D-01
   zz         0.699067D+02      0.103591D+02      0.115261D+02

 ----------------------------------------------------------------------
 1\1\GINC-LOCALHOST\Freq\RB3LYP\6-311G(d)\C4H11O2(1+)\KIMARIYB\21-Jul-2
 023\0\\#N Geom=AllCheck Guess=TCheck SCRF=Check GenChk RB3LYP/6-311G(d
 ) Freq\\reaction1\\1,1\C,-0.0730883229,0.0222131684,-1.1265612032\C,-0
 .329512429,0.3629662083,0.2719992172\O,0.9474506066,0.8846988774,-0.46
 88871766\H,0.306168783,-0.9611201999,-1.374406209\H,-0.5737755873,0.55
 94421585,-1.9202203922\C,-0.0353170918,-0.6339895961,1.3516091453\H,0.
 3098885249,-0.1325382636,2.2567797835\H,-0.9666001588,-1.154363972,1.5
 877637897\H,0.7007908724,-1.3751716418,1.0435674556\C,-1.2359713898,1.
 5072023045,0.6017977253\H,-2.2407304571,1.1100283104,0.7666949176\H,-0
 .9124073709,2.0056457932,1.5163538201\H,-1.2813986159,2.2315391446,-0.
 2106493671\H,1.8077612039,0.340624116,-0.2374177996\O,2.9597285034,-0.
 5186549503,0.0519685672\H,3.6008842226,-0.6007033136,-0.664126995\H,3.
 4412057065,-0.2846211439,0.8545517214\\Version=ES64L-G16RevA.03\State=
 1-A\HF=-309.3833425\RMSD=2.144e-09\RMSF=8.382e-05\ZeroPoint=0.1502943\
 Thermal=0.1591598\Dipole=1.2257493,-0.5000176,-0.3037862\DipoleDeriv=0
 .4427958,0.1685864,0.2692013,0.1244363,0.3166936,0.1062759,0.020249,0.
 0017108,0.3124774,0.9744478,-0.0627215,-0.4541962,0.0770887,0.5764892,
 -0.2140366,-0.2365614,-0.0788569,0.5991619,-1.8866556,-0.1165071,0.143
 3931,-0.0075177,-0.5972589,0.0820118,-0.0111898,0.0536473,-0.5940859,0
 .0666569,0.0759951,0.0001765,0.0204988,0.0211184,-0.0457089,-0.0213371
 ,-0.0107195,0.090737,0.0938468,0.0065043,-0.0312679,0.0321591,0.054576
 4,0.0617786,-0.0540072,0.0140961,0.0307683,-0.0414701,0.0345723,0.0342
 172,-0.0022505,-0.0906012,0.1141078,0.047969,0.0992204,-0.0454622,0.10
 42085,-0.008286,-0.0792528,-0.0436899,0.0137252,-0.0812542,-0.0439339,
 -0.0446065,-0.0496803,-0.0389831,-0.0654967,0.0100301,-0.0634429,0.092
 1992,0.0466681,0.0161364,0.0284793,0.0862913,0.0466043,0.1140141,0.009
 9364,0.0931875,0.0187684,-0.0166109,0.0557214,-0.0344662,0.0320437,-0.
 0716341,0.0891353,0.0453079,0.1085183,-0.050577,0.0034491,0.0485679,0.
 0165165,0.0278484,-0.0361822,-0.0542285,0.0382749,-0.0629615,0.0366072
 ,-0.008461,0.0335783,-0.0006695,0.1215215,0.0613189,-0.023239,-0.07867
 75,0.0365164,0.0459239,-0.0767026,-0.050763,-0.0863847,-0.0510172,0.10
 55649,0.0045706,0.0259636,0.0491323,-0.0051957,0.0679076,0.0048669,0.1
 065123,-0.045251,1.558227,-0.3272029,0.1050283,-0.6840709,0.4933101,-0
 .0799384,0.2940383,-0.0980233,0.3113747,-0.9907809,0.1572693,-0.029533
 6,0.3336419,-0.8269564,0.0684712,-0.0868486,0.063323,-0.5761597,0.2943
 546,0.010435,0.0392536,-0.016937,0.4636992,0.0165625,-0.016869,0.01069
 ,0.3753789,0.3176806,-0.0034008,-0.047855,0.0056911,0.4374785,-0.04451
 99,0.0003827,-0.040469,0.374053\Polar=66.6421874,-5.1496473,57.6408344
 ,-2.3155566,0.5688538,67.3262227\Quadrupole=10.179734,-7.7423945,-2.43
 73396,-3.0942965,-0.2135642,1.1450245\PG=C01 [X(C4H11O2)]\NImag=0\\0.3
 4398945,-0.19352748,0.59876048,0.08140527,0.01993774,0.63783688,-0.012
 77405,0.05716323,0.06256048,0.30731934,0.04273895,-0.06866630,-0.03501
 919,-0.15869593,0.46114901,0.02092982,-0.05909461,-0.28438857,-0.03314
 639,-0.00358905,0.60409518,-0.11125222,-0.05038438,-0.07563618,-0.0532
 5599,0.00362211,0.02394717,0.38630172,-0.01516219,-0.10403028,-0.03813
 878,-0.00815612,-0.04796771,0.03086480,-0.06222039,0.27745518,-0.01581
 239,-0.02568661,-0.04126764,-0.02872809,0.01280669,-0.03974355,0.08336
 202,-0.01919300,0.14859040,-0.09129436,0.11137501,0.02598408,-0.009662
 10,0.01323186,-0.00215563,0.00712043,-0.03236715,-0.01389432,0.0886169
 2,0.09948996,-0.29261044,-0.05498694,-0.00342940,0.00360138,-0.0006287
 4,0.00187297,-0.01350314,-0.00737242,-0.10270019,0.30624533,0.01529136
 ,-0.05262129,-0.06840556,0.00899523,-0.02477037,-0.00334596,-0.0000328
 7,-0.00445389,-0.00507963,-0.01894957,0.06521338,0.06837331,-0.1061568
 6,0.07450521,-0.09170522,0.00807742,-0.01432495,0.00994515,-0.01623108
 ,0.01104013,-0.02132248,-0.00034642,0.00393028,-0.00590324,0.11252482,
 0.08011600,-0.13692865,0.11928961,-0.00217692,-0.00143313,-0.00369321,
 -0.01490492,0.00967265,-0.01855784,0.01066738,-0.00604627,0.01928056,-
 0.07388356,0.13502002,-0.10067602,0.10721268,-0.20881443,-0.01177198,0
 .01376784,-0.01469532,-0.00304822,-0.00282415,-0.00281374,0.00545392,-
 0.00394404,0.00913012,0.10942302,-0.11252616,0.21896468,-0.00712811,0.
 00501103,-0.00547175,-0.08306256,0.03534689,-0.03659580,-0.00450685,-0
 .02155385,0.03383459,0.00045517,-0.00013049,0.00163904,0.00121882,0.00
 022274,-0.00101896,0.57924279,-0.00775125,0.01130089,-0.00929942,0.031
 39909,-0.13819017,0.05603499,-0.00428811,-0.01248543,0.01853131,-0.000
 65204,0.00009174,-0.00007494,0.00244523,0.00043422,-0.00317612,-0.0131
 2617,0.54486496,-0.00483232,0.02073793,-0.02457410,-0.02171211,0.05930
 121,-0.15095703,0.00572554,0.00348932,-0.00647916,-0.00165411,0.000266
 94,0.00165014,0.00282614,0.00014159,-0.00217385,-0.00964557,0.05136896
 ,0.53605221,0.00021374,0.00076971,0.00141361,-0.00407698,-0.00483852,-
 0.00301143,0.00213118,0.00102545,-0.00054637,0.00008009,-0.00009665,-0
 .00023568,0.00012292,-0.00019064,-0.00005586,-0.07462762,-0.03599021,-
 0.07165330,0.07554768,0.00219894,-0.00308500,0.00329500,0.00810711,0.0
 1184731,0.02283434,-0.00006322,0.00133975,-0.00267235,0.00004000,0.000
 03036,0.00005592,-0.00074961,0.00016340,0.00094224,-0.03854586,-0.1090
 6727,-0.10669456,0.04155054,0.11454999,-0.00330826,0.00318380,-0.00172
 600,-0.00675062,-0.01025284,-0.02449117,0.00073042,-0.00079058,0.00215
 026,-0.00019313,0.00001642,0.00041993,0.00096799,0.00018750,-0.0008216
 6,-0.07083573,-0.10340442,-0.22980097,0.07856181,0.11022562,0.25149972
 ,0.00052536,-0.00029774,0.00111373,0.00381620,0.00098507,0.00160203,0.
 00304708,0.00217560,-0.00333117,-0.00006255,-0.00016486,-0.00004898,-0
 .00009402,-0.00001095,0.00008150,-0.24147297,-0.10828765,0.04846548,-0
 .00793045,-0.00353913,0.00186853,0.25954088,-0.00065445,0.00023979,-0.
 00050586,-0.01938328,-0.01159394,0.00334236,-0.00046700,-0.00184617,0.
 00375296,0.00009863,0.00007903,0.00018013,0.00004258,0.00001742,0.0000
 2762,-0.10778723,-0.10650100,0.02889857,-0.01161929,-0.00741014,0.0036
 0053,0.11849949,0.11432074,0.00155357,-0.00072000,0.00134316,0.0221125
 1,0.01071212,-0.00542781,0.00044324,0.00392832,-0.00556647,-0.00011040
 ,-0.00006578,-0.00020612,-0.00016604,0.00001157,0.00009195,0.04783007,
 0.02866991,-0.05700598,-0.02351401,-0.01265013,0.00786146,-0.05338142,
 -0.03393045,0.06115366,0.00040895,0.00015207,0.00070554,-0.00555758,0.
 00038511,0.00241908,0.00085695,-0.00014992,-0.00062320,0.00031076,-0.0
 0012163,-0.00037588,-0.00007798,-0.00022940,-0.00001457,-0.17217735,0.
 12819062,0.05139989,0.00895376,-0.00857098,-0.00215226,-0.01639306,0.0
 1851460,0.00692803,0.18333002,0.00059772,0.00068909,-0.00109117,0.0147
 5821,-0.01757335,-0.00615223,-0.00084698,0.00091407,-0.00164479,-0.000
 49240,0.00049608,0.00045145,0.00003101,0.00021241,0.00000762,0.1246994
 3,-0.17234134,-0.05257392,0.00889929,-0.00899258,-0.00283707,-0.010588
 19,0.01306582,0.00471170,-0.13801423,0.18616421,-0.00118746,0.00096656
 ,0.00146481,-0.02018928,0.01776177,0.00723480,0.00031964,-0.00085111,0
 .00135324,0.00019311,-0.00007026,-0.00050015,-0.00002231,-0.00026816,0
 .00009785,0.05555166,-0.05626586,-0.07513184,0.01933364,-0.01576582,-0
 .00594697,0.00359132,-0.00475080,-0.00305355,-0.05839090,0.05479072,0.
 07843793,0.00178825,-0.00981923,0.00230060,-0.10790734,0.06254021,0.00
 699784,-0.03512651,0.02035915,0.01570247,0.00191234,0.00007575,-0.0021
 6547,0.00016128,0.00016045,0.00024790,0.00101120,0.00787675,-0.0027737
 7,-0.00020693,-0.00021014,0.00093914,-0.00089394,0.00066586,-0.0000605
 5,0.00106507,-0.00034480,0.00032871,0.52634607,0.00859932,-0.01289258,
 -0.00457274,0.07421737,-0.17266424,-0.02711495,-0.01246188,0.01346917,
 0.00373604,0.00099702,0.00087253,-0.00077459,-0.00081815,0.00080718,0.
 00170396,0.01581717,-0.01772445,-0.00311151,-0.00035366,0.00107845,-0.
 00088588,0.00017923,0.00079867,-0.00074246,0.00029544,-0.00125863,0.00
 276859,0.03439808,0.54401456,0.01944364,-0.02462530,-0.00763458,0.0139
 1699,-0.01869622,-0.09172429,0.00809615,-0.00110779,-0.00290792,0.0030
 7030,0.00103220,-0.00337365,-0.00105500,-0.00112859,0.00122114,-0.0171
 1109,0.01704303,0.00838925,-0.00019174,0.00029176,0.00049796,0.0003323
 4,-0.00069842,0.00064856,-0.00097764,0.00401854,-0.00381043,0.01494072
 ,-0.02280703,0.59230545,-0.00002362,-0.00044404,0.00025532,-0.02047329
 ,-0.00811123,0.00266828,-0.00171026,0.00318068,-0.00004000,0.00000056,
 0.00004356,0.00003758,-0.00002781,0.00013502,0.00012002,0.00055812,-0.
 00050198,0.00015471,0.00003307,0.00000973,0.00010265,0.00016331,0.0005
 6350,-0.00022862,0.00033692,0.00019821,0.00012738,-0.27141986,-0.08799
 317,0.03712505,0.29581180,-0.00037697,0.00196065,0.00078776,0.02065046
 ,0.01088699,-0.00185068,0.00701273,-0.00348205,-0.00256699,-0.00012896
 ,-0.00009526,0.00011158,-0.00015536,-0.00006934,-0.00023496,-0.0010718
 5,-0.00019218,0.00062923,0.00007660,-0.00000586,-0.00003567,0.00077336
 ,-0.00107774,0.00030220,-0.00024434,0.00016436,-0.00024150,-0.08921533
 ,-0.08368175,0.01466848,0.09502247,0.08780171,-0.00014646,0.00102282,0
 .00010084,0.00700506,0.00327325,-0.00308626,0.00205039,-0.00206958,0.0
 0007393,-0.00005115,-0.00004292,0.00008432,0.00002133,-0.00008611,-0.0
 0005562,0.00013412,0.00052307,-0.00026839,-0.00007437,0.00000460,0.000
 11457,-0.00025119,0.00018162,0.00016754,-0.00000830,-0.00008762,-0.000
 03666,0.03676436,0.01441692,-0.05021949,-0.04209779,-0.01515029,0.0510
 3882,-0.00168742,0.00490848,0.00107984,0.00387398,0.01138093,0.0219394
 2,0.00269271,-0.00142319,-0.00165393,-0.00075975,-0.00015772,0.0009601
 0,0.00010296,0.00003891,-0.00021837,0.00047240,-0.00084680,0.00049328,
 -0.00009925,0.00007993,-0.00026806,0.00004008,-0.00005416,-0.00005087,
 -0.00004108,-0.00021752,0.00003614,-0.07119528,-0.03786737,-0.07179825
 ,-0.00739664,-0.01274183,-0.02589149,0.07524231,0.00172205,-0.00361795
 ,0.00140487,-0.00954001,-0.01325735,-0.02380807,0.00116243,0.00168615,
 0.00098324,0.00061638,0.00033055,-0.00093017,-0.00004707,-0.00001915,-
 0.00004658,-0.00077874,0.00084627,-0.00057033,0.00039329,-0.00039871,0
 .00067928,0.00006640,0.00000925,0.00000861,0.00015664,0.00040630,0.000
 18628,-0.03438569,-0.10450245,-0.09958779,-0.00269123,-0.00565091,-0.0
 0874749,0.03649606,0.11164123,-0.00021634,-0.00164098,0.00082757,0.000
 63821,-0.00365402,-0.00737736,-0.00016320,0.00008899,0.00050006,0.0005
 1951,0.00012584,-0.00013006,-0.00020296,0.00005966,0.00039055,0.000084
 41,0.00092104,0.00019247,-0.00012461,0.00015791,0.00055529,0.00000157,
 0.00012002,0.00003774,0.00016676,0.00007171,0.00008392,-0.06993267,-0.
 10146495,-0.23837435,0.00094589,0.00339692,0.00570058,0.07513566,0.112
 93185,0.25480768,0.00098157,0.00028422,-0.00078049,-0.00493159,0.01560
 302,-0.01657303,0.00138988,-0.00061018,-0.00108024,0.00011757,-0.00006
 598,-0.00000040,-0.00018030,-0.00006308,0.00030531,-0.00229955,0.00259
 701,0.00210413,0.00012545,-0.00023110,0.00029952,0.00023899,0.00010614
 ,-0.00007438,0.00011762,0.00095853,-0.00073296,-0.04566341,0.00490656,
 -0.00541731,0.00353548,-0.01937553,0.02273528,-0.00134372,0.00715829,-
 0.00668595,0.04813934,-0.00040642,0.00020163,0.00166470,-0.00152254,-0
 .01845637,0.01979098,-0.00036811,0.00152049,-0.00042885,-0.00037693,0.
 00007914,-0.00012938,0.00041973,-0.00011566,-0.00104671,0.00346831,-0.
 00213951,-0.00274335,0.00005286,0.00009003,0.00012052,-0.00016038,0.00
 038941,-0.00028383,0.00034167,-0.00065133,0.00117138,0.00869284,-0.167
 41422,0.13157909,0.00073778,-0.00707913,0.00675626,0.00028156,0.012306
 90,-0.01115438,-0.01120102,0.18108148,0.00033162,-0.00097730,0.0011161
 7,-0.00043837,-0.00716250,0.00621661,-0.00040123,0.00007315,0.00033752
 ,-0.00008781,0.00008904,0.00006571,-0.00006174,-0.00038521,-0.00032928
 ,0.00126809,-0.00107463,0.00022866,0.00019419,-0.00016331,0.00020591,0
 .00006849,0.00004647,-0.00012969,0.00024321,-0.00015108,0.00052932,-0.
 00773445,0.13619881,-0.20431936,0.00001982,0.00136574,-0.00308163,0.00
 046195,0.01763775,-0.01719022,0.00612629,-0.14538922,0.21633522,-0.021
 79378,-0.00518957,-0.00495886,-0.02838950,-0.00422916,0.00522753,-0.12
 529165,0.07474559,-0.03311786,0.00297219,0.00198172,0.00024871,0.00192
 067,0.00099305,0.00142550,0.00416460,0.00099109,0.00053981,-0.00033768
 ,-0.00014070,-0.00031144,-0.00030060,0.00126910,-0.00175492,0.00044082
 ,-0.00027316,0.00036601,0.00175831,0.00119290,-0.00067092,0.00102936,-
 0.00072304,-0.00054079,0.00003960,-0.00051322,-0.00025801,-0.00047026,
 0.00011645,0.00004545,0.15471168,-0.01658125,0.01278701,-0.00185618,0.
 00071403,0.00585005,-0.01076203,0.09175088,-0.11225042,0.03050874,-0.0
 0076123,-0.00019116,-0.00182219,-0.00335553,-0.00246832,0.00003513,-0.
 00195408,0.00179133,0.00091064,0.00054898,-0.00033257,0.00027086,0.000
 63396,-0.00085661,0.00020096,-0.00062321,-0.00172949,0.00068617,-0.002
 08630,-0.00183056,0.00030482,-0.00044516,0.00093120,0.00023624,0.00017
 541,0.00036075,0.00008193,0.00012647,0.00010018,-0.00013212,-0.0530127
 6,0.10179665,-0.01471247,0.01188066,-0.00687433,0.00668329,-0.01718939
 ,0.00973044,-0.02957554,0.02391471,-0.05564290,0.00092802,0.00049685,0
 .00110965,-0.00275012,-0.00236901,-0.00022247,0.00001943,-0.00104391,-
 0.00020439,-0.00008484,0.00015108,-0.00054762,-0.00053045,0.00020613,0
 .00000879,0.00023558,0.00127842,-0.00024035,0.00534443,0.00330482,-0.0
 0101009,0.00100538,-0.00144518,-0.00067914,-0.00024483,-0.00020681,-0.
 00004546,-0.00033440,0.00018696,0.00002210,0.02723508,-0.01315045,0.07
 865790,0.00372699,0.00508660,0.00137284,0.00650154,0.00405462,-0.00378
 946,-0.05075155,0.02426521,-0.01121659,0.00051403,-0.00039283,0.000443
 16,-0.00100673,-0.00082799,-0.00023730,-0.00166658,-0.00162098,0.00043
 447,0.00010920,0.00000723,0.00023625,-0.00027411,0.00015776,0.00039141
 ,-0.00108338,0.00065240,0.00069648,-0.00154515,-0.00100631,0.00024695,
 -0.00038445,0.00048391,0.00031969,0.00005744,0.00017441,0.00008436,0.0
 0021642,-0.00005063,-0.00003094,0.01131575,-0.00556237,0.00560039,0.47
 531774,-0.00069799,-0.00367594,-0.00079648,-0.00394445,-0.00303503,0.0
 0348891,0.03398441,-0.00644640,0.00647695,0.00051327,0.00052190,0.0002
 7502,0.00085919,0.00067219,0.00008380,0.00054499,-0.00045400,-0.000116
 39,-0.00021074,0.00014381,-0.00007587,-0.00019045,0.00030899,-0.000153
 35,-0.00007491,0.00021373,-0.00004506,0.00114771,0.00082822,-0.0002400
 2,0.00025673,-0.00037962,-0.00019820,-0.00005176,-0.00013630,-0.000037
 50,-0.00017506,0.00006050,0.00002616,-0.01640475,-0.01012564,-0.005514
 85,0.00943047,0.06719550,0.00205647,0.00022416,0.00099961,0.00047663,0
 .00278715,-0.00211488,-0.01391155,0.00576400,0.00785527,0.00110871,-0.
 00006165,0.00021699,0.00001909,0.00009788,0.00007853,0.00026876,0.0013
 7116,0.00013366,-0.00006615,0.00002274,0.00006617,0.00051812,-0.000523
 09,0.00008210,0.00042313,-0.00097103,-0.00059328,-0.00088953,-0.000653
 15,0.00036481,-0.00019480,0.00026251,0.00014300,0.00001284,0.00007070,
 0.00002408,0.00011177,-0.00010686,-0.00000472,0.00671066,-0.00387858,-
 0.02853094,-0.02848038,0.13365931,0.68130942,-0.00012119,0.00040103,0.
 00010624,0.00037475,-0.00022721,0.00011679,-0.00205165,0.00207417,-0.0
 0168506,-0.00021486,-0.00010667,0.00001245,-0.00002185,-0.00008756,-0.
 00004066,0.00001170,-0.00046977,-0.00002212,0.00002534,0.00000007,-0.0
 0000361,-0.00011945,0.00013931,0.00001680,-0.00024228,0.00028258,0.000
 13014,0.00003890,0.00002409,-0.00006268,0.00000108,-0.00001903,0.00000
 342,0.00000584,-0.00000643,-0.00000050,-0.00000553,0.00001378,-0.00000
 259,-0.00193613,-0.00316880,0.00722583,-0.26431313,0.03352356,0.248264
 51,0.25203713,0.00010906,-0.00025014,0.00015370,-0.00014768,-0.0000908
 5,0.00014184,0.00230395,-0.00135803,0.00181357,-0.00003120,0.00000716,
 -0.00001792,0.00010556,0.00007735,-0.00000842,-0.00011503,-0.00031958,
 -0.00011636,0.00001595,0.00005772,0.00001491,-0.00010085,0.00007529,0.
 00002369,0.00017417,0.00035404,0.00003200,-0.00002812,0.00001295,-0.00
 003021,0.00000322,0.00001821,0.00000010,0.00000372,0.00000331,0.000002
 08,-0.00000725,0.00002229,0.00000173,0.00116295,0.00085380,-0.00698764
 ,0.01632827,-0.00888368,-0.02657611,-0.02839059,0.01120251,0.00022776,
 0.00048623,0.00010010,0.00095661,0.00017225,-0.00036362,-0.00529864,0.
 00253520,-0.00190932,-0.00003942,-0.00002845,0.00005667,-0.00013969,-0
 .00008944,-0.00003255,-0.00013918,-0.00019058,0.00004888,0.00001854,0.
 00001146,0.00000231,-0.00006500,-0.00000598,0.00005020,0.00025951,0.00
 025070,-0.00010788,-0.00012394,-0.00005544,-0.00000074,-0.00003681,0.0
 0004151,0.00002841,0.00000634,0.00001896,0.00000894,0.00001298,0.00000
 562,-0.00000169,0.00552515,-0.00464883,0.00592958,0.19656676,-0.038080
 18,-0.30001591,-0.23060015,0.04091169,0.32437252,0.00059729,0.00000586
 ,0.00025495,0.00012773,0.00053823,-0.00052137,-0.00336217,0.00277701,0
 .00015263,0.00023997,-0.00002781,0.00008445,0.00001415,0.00004147,0.00
 002477,-0.00019319,0.00003516,0.00014983,-0.00006351,0.00005719,0.0001
 1680,0.00016924,-0.00009156,0.00006558,-0.00024816,-0.00030011,-0.0001
 5131,-0.00012298,-0.00012662,0.00011247,-0.00003380,0.00003271,0.00002
 790,-0.00000421,0.00001644,0.00000787,0.00003203,-0.00003896,-0.000002
 01,0.00016662,-0.00639905,-0.00604479,-0.17673402,-0.05851023,-0.21642
 829,0.01653132,0.00861387,0.03286916,0.16288370,-0.00041400,-0.0001822
 6,-0.00026661,-0.00001317,-0.00040630,0.00019534,0.00429551,-0.0026878
 3,-0.00048664,-0.00002945,0.00009107,0.00002668,-0.00004470,0.00000368
 ,0.00002625,-0.00004727,0.00008551,0.00018205,-0.00003295,-0.00000870,
 -0.00001712,0.00002708,-0.00001881,-0.00002310,-0.00018168,-0.00013340
 ,-0.00010491,0.00017279,0.00008715,-0.00001655,0.00003592,-0.00004930,
 -0.00003267,-0.00000464,-0.00000788,-0.00000613,-0.00001104,0.00000416
 ,-0.00000346,-0.00196650,0.00531380,0.00648762,-0.05117977,-0.03680825
 ,-0.11148915,-0.00398253,-0.00178233,-0.00133473,0.05337640,0.03649969
 ,-0.00034780,-0.00028650,-0.00010393,-0.00060819,-0.00024871,0.0004387
 8,0.00339287,-0.00122961,0.00054965,-0.00012212,-0.00003947,-0.0000657
 1,0.00012608,0.00003536,-0.00001591,0.00018791,0.00006639,-0.00009959,
 0.00003657,-0.00004652,-0.00003921,-0.00003492,0.00005819,-0.00005557,
 -0.00023798,-0.00007195,0.00021925,0.00011420,0.00005357,-0.00005228,0
 .00003594,-0.00004065,-0.00002481,0.00000022,-0.00002432,-0.00001142,-
 0.00001612,0.00000708,-0.00000062,-0.00571111,0.00301491,-0.00146078,-
 0.16263808,-0.09875227,-0.36001390,-0.02345882,-0.00935865,-0.02816593
 ,0.18928134,0.10686313,0.38890197\\0.00004564,0.00021517,0.00010865,0.
 00015081,-0.00002610,-0.00009141,-0.00007702,-0.00036582,0.00009688,0.
 00001759,-0.00000269,0.00001227,0.00000902,-0.00004608,-0.00001216,-0.
 00003992,-0.00000730,-0.00003022,0.00000844,-0.00000167,0.00001927,0.0
 0001041,0.00002824,-0.00002236,0.00001773,0.00000953,-0.00000381,-0.00
 005139,0.00001844,-0.00004419,0.00004389,-0.00002011,-0.00001818,-0.00
 001084,0.00003482,-0.00000201,0.00002164,-0.00000448,-0.00000830,-0.00
 019464,0.00021319,-0.00006252,0.00007009,-0.00007592,0.00001939,-0.000
 00509,0.00000772,0.00001045,-0.00001635,0.00002307,0.00002826\\\@


 In the beginning there was nothing, which exploded.
 Job cpu time:       0 days  0 hours  6 minutes 20.0 seconds.
 Elapsed time:       0 days  0 hours  0 minutes 38.8 seconds.
 File lengths (MBytes):  RWF=     77 Int=      0 D2E=      0 Chk=      8 Scr=      1
 Normal termination of Gaussian 16 at Fri Jul 21 15:11:05 2023.
