 Default is to use a total of   4 processors:
                                4 via shared-memory
                                1 via Linda
 Entering Link 1 = d:\study\G09W\l1.exe PID=      5600.
  
 Copyright (c) 1988,1990,1992,1993,1995,1998,2003,2009,2013,
            Gaussian, Inc.  All Rights Reserved.
  
 This is part of the Gaussian(R) 09 program.  It is based on
 the Gaussian(R) 03 system (copyright 2003, Gaussian, Inc.),
 the Gaussian(R) 98 system (copyright 1998, Gaussian, Inc.),
 the Gaussian(R) 94 system (copyright 1995, Gaussian, Inc.),
 the Gaussian 92(TM) system (copyright 1992, Gaussian, Inc.),
 the Gaussian 90(TM) system (copyright 1990, Gaussian, Inc.),
 the Gaussian 88(TM) system (copyright 1988, Gaussian, Inc.),
 the Gaussian 86(TM) system (copyright 1986, Carnegie Mellon
 University), and the Gaussian 82(TM) system (copyright 1983,
 Carnegie Mellon University). Gaussian is a federally registered
 trademark of Gaussian, Inc.
  
 This software contains proprietary and confidential information,
 including trade secrets, belonging to Gaussian, Inc.
  
 This software is provided under written license and may be
 used, copied, transmitted, or stored only in accord with that
 written license.
  
 The following legend is applicable only to US Government
 contracts under FAR:
  
                    RESTRICTED RIGHTS LEGEND
  
 Use, reproduction and disclosure by the US Government is
 subject to restrictions as set forth in subparagraphs (a)
 and (c) of the Commercial Computer Software - Restricted
 Rights clause in FAR 52.227-19.
  
 Gaussian, Inc.
 340 Quinnipiac St., Bldg. 40, Wallingford CT 06492
  
  
 ---------------------------------------------------------------
 Warning -- This program may not be used in any manner that
 competes with the business of Gaussian, Inc. or will provide
 assistance to any competitor of Gaussian, Inc.  The licensee
 of this program is prohibited from giving any competitor of
 Gaussian, Inc. access to this program.  By using this program,
 the user acknowledges that Gaussian, Inc. is engaged in the
 business of creating and licensing software in the field of
 computational chemistry and represents and warrants to the
 licensee that it is not a competitor of Gaussian, Inc. and that
 it will not use this program in any manner prohibited above.
 ---------------------------------------------------------------
  

 Cite this work as:
 Gaussian 09, Revision D.01,
 M. J. Frisch, G. W. Trucks, H. B. Schlegel, G. E. Scuseria, 
 M. A. Robb, J. R. Cheeseman, G. Scalmani, V. Barone, B. Mennucci, 
 G. A. Petersson, H. Nakatsuji, M. Caricato, X. Li, H. P. Hratchian, 
 A. F. Izmaylov, J. Bloino, G. Zheng, J. L. Sonnenberg, M. Hada, 
 M. Ehara, K. Toyota, R. Fukuda, J. Hasegawa, M. Ishida, T. Nakajima, 
 Y. Honda, O. Kitao, H. Nakai, T. Vreven, J. A. Montgomery, Jr., 
 J. E. Peralta, F. Ogliaro, M. Bearpark, J. J. Heyd, E. Brothers, 
 K. N. Kudin, V. N. Staroverov, T. Keith, R. Kobayashi, J. Normand, 
 K. Raghavachari, A. Rendell, J. C. Burant, S. S. Iyengar, J. Tomasi, 
 M. Cossi, N. Rega, J. M. Millam, M. Klene, J. E. Knox, J. B. Cross, 
 V. Bakken, C. Adamo, J. Jaramillo, R. Gomperts, R. E. Stratmann, 
 O. Yazyev, A. J. Austin, R. Cammi, C. Pomelli, J. W. Ochterski, 
 R. L. Martin, K. Morokuma, V. G. Zakrzewski, G. A. Voth, 
 P. Salvador, J. J. Dannenberg, S. Dapprich, A. D. Daniels, 
 O. Farkas, J. B. Foresman, J. V. Ortiz, J. Cioslowski, 
 and D. J. Fox, Gaussian, Inc., Wallingford CT, 2013.
 
 ******************************************
 Gaussian 09:  IA32W-G09RevD.01 24-Apr-2013
                02-Feb-2016 
 ******************************************
 ------------------
 # B2PLYP/def2TZVPP
 ------------------
 1/38=1/1;
 2/12=2,17=6,18=5,40=1/2;
 3/5=44,7=202,11=9,16=1,25=1,30=1,74=-47/1,2,3;
 4//1;
 5/5=2,38=5/2;
 8/10=1/1;
 9/16=-3/6;
 6/7=2,8=2,9=2,10=2/1;
 99/5=1,9=1/99;
 -------------------
 Title Card Required
 -------------------
 Symbolic Z-matrix:
 Charge =  0 Multiplicity = 1
 C                     0.        0.       -0.56221 
 H                     0.       -0.92445  -1.10111 
 H                     0.        0.92445  -1.10111 
 O                     0.        0.        0.69619 
 
                          Input orientation:                          
 ---------------------------------------------------------------------
 Center     Atomic      Atomic             Coordinates (Angstroms)
 Number     Number       Type             X           Y           Z
 ---------------------------------------------------------------------
      1          6           0        0.000000    0.000000   -0.562211
      2          1           0        0.000000   -0.924448   -1.101105
      3          1           0        0.000000    0.924448   -1.101105
      4          8           0        0.000000    0.000000    0.696189
 ---------------------------------------------------------------------
                    Distance matrix (angstroms):
                    1          2          3          4
     1  C    0.000000
     2  H    1.070052   0.000000
     3  H    1.070052   1.848895   0.000000
     4  O    1.258400   2.021107   2.021107   0.000000
 Stoichiometry    CH2O
 Framework group  C2V[C2(CO),SGV(H2)]
 Deg. of freedom     3
 Full point group                 C2V     NOp   4
 Largest Abelian subgroup         C2V     NOp   4
 Largest concise Abelian subgroup C2      NOp   2
                         Standard orientation:                         
 ---------------------------------------------------------------------
 Center     Atomic      Atomic             Coordinates (Angstroms)
 Number     Number       Type             X           Y           Z
 ---------------------------------------------------------------------
      1          6           0        0.000000    0.000000   -0.561838
      2          1           0        0.000000    0.924448   -1.100733
      3          1           0        0.000000   -0.924448   -1.100733
      4          8           0        0.000000    0.000000    0.696562
 ---------------------------------------------------------------------
 Rotational constants (GHZ):    293.3846535     36.5359393     32.4898904
 Standard basis: def2TZVPP (5D, 7F)
 There are    45 symmetry adapted cartesian basis functions of A1  symmetry.
 There are    10 symmetry adapted cartesian basis functions of A2  symmetry.
 There are    20 symmetry adapted cartesian basis functions of B1  symmetry.
 There are    27 symmetry adapted cartesian basis functions of B2  symmetry.
 There are    38 symmetry adapted basis functions of A1  symmetry.
 There are    10 symmetry adapted basis functions of A2  symmetry.
 There are    18 symmetry adapted basis functions of B1  symmetry.
 There are    24 symmetry adapted basis functions of B2  symmetry.
    90 basis functions,   136 primitive gaussians,   102 cartesian basis functions
     8 alpha electrons        8 beta electrons
       nuclear repulsion energy        30.5945943065 Hartrees.
 NAtoms=    4 NActive=    4 NUniq=    3 SFac= 1.78D+00 NAtFMM=   60 NAOKFM=F Big=F
 Integral buffers will be    262144 words long.
 Regular integral format.
 Two-electron integral symmetry is turned on.
 One-electron integrals computed using PRISM.
   4 Symmetry operations used in ECPInt.
 ECPInt:  NShTT=     595 NPrTT=    1646 LenC2=     596 LenP2D=    1537.
 LDataN:  DoStor=T MaxTD1= 6 Len=  172
 NBasis=    90 RedAO= T EigKep=  8.32D-04  NBF=    38    10    18    24
 NBsUse=    90 1.00D-06 EigRej= -1.00D+00 NBFU=    38    10    18    24
 ExpMin= 9.52D-02 ExpMax= 2.70D+04 ExpMxC= 9.22D+02 IAcc=2 IRadAn=         4 AccDes= 0.00D+00
 Harris functional with IExCor=  419 and IRadAn=       4 diagonalized for initial guess.
 HarFok:  IExCor=  419 AccDes= 0.00D+00 IRadAn=         4 IDoV= 1 UseB2=F ITyADJ=14
 ICtDFT=  3500011 ScaDFX=  1.000000  1.000000  1.000000  1.000000
 FoFCou: FMM=F IPFlag=           0 FMFlag=      100000 FMFlg1=           0
         NFxFlg=           0 DoJE=T BraDBF=F KetDBF=T FulRan=T
         wScrn=  0.000000 ICntrl=     500 IOpCl=  0 I1Cent=   200000004 NGrid=           0
         NMat0=    1 NMatS0=      1 NMatT0=    0 NMatD0=    1 NMtDS0=    0 NMtDT0=    0
 Petite list used in FoFCou.
 Initial guess orbital symmetries:
       Occupied  (A1) (A1) (A1) (A1) (B2) (A1) (B1) (B2)
       Virtual   (B1) (A1) (A1) (B2) (A1) (B1) (B2) (A1) (A1) (A1)
                 (B2) (B1) (A2) (B2) (A1) (B1) (A1) (B2) (A1) (A2)
                 (B1) (B2) (A1) (A1) (B1) (B2) (A1) (B2) (A1) (A2)
                 (B1) (A1) (B2) (A1) (B2) (B1) (A1) (A2) (B2) (A1)
                 (B1) (B2) (A1) (A1) (B1) (A2) (B2) (A1) (A2) (B1)
                 (B2) (A1) (B1) (B2) (A1) (A2) (A1) (B1) (B2) (A1)
                 (A1) (B1) (B2) (A2) (B2) (B2) (B1) (A1) (A1) (B2)
                 (A2) (A1) (B1) (A1) (A2) (A1) (B1) (B2) (A1) (B2)
                 (A1) (A1)
 The electronic state of the initial guess is 1-A1.
 Keep R1 ints in memory in symmetry-blocked form, NReq=10601179.
 Requested convergence on RMS density matrix=1.00D-08 within 128 cycles.
 Requested convergence on MAX density matrix=1.00D-06.
 Requested convergence on             energy=1.00D-06.
 No special actions if energy rises.
 Integral accuracy reduced to 1.0D-05 until final iterations.
 Initial convergence to 1.0D-05 achieved.  Increase integral accuracy.
 SCF Done:  E(RB2PLYP) =  -114.331743782     A.U. after   12 cycles
            NFock= 12  Conv=0.33D-08     -V/T= 2.0040
 DoSCS=T DFT=T ScalE2(SS,OS)=  0.270000  0.270000
 ExpMin= 9.52D-02 ExpMax= 2.70D+04 ExpMxC= 9.22D+02 IAcc=3 IRadAn=         5 AccDes= 0.00D+00
 HarFok:  IExCor=  205 AccDes= 0.00D+00 IRadAn=         5 IDoV=-2 UseB2=F ITyADJ=14
 ICtDFT= 12500011 ScaDFX=  1.000000  1.000000  1.000000  1.000000
 Range of M.O.s used for correlation:     3    90
 NBasis=    90 NAE=     8 NBE=     8 NFC=     2 NFV=     0
 NROrb=     88 NOA=     6 NOB=     6 NVA=    82 NVB=    82

 **** Warning!!: The largest alpha MO coefficient is  0.16806408D+02

 DoSCS=T DFT=T ScalE2(SS,OS)=  0.270000  0.270000
 Fully in-core method, ICMem=    36092025.
 JobTyp=1 Pass  1 fully in-core, NPsUse=  4.
 Spin components of T(2) and E(2):
     alpha-alpha T2 =       0.2271659805D-01 E2=     -0.1600315597D-01
     alpha-beta  T2 =       0.1418514634D+00 E2=     -0.1000538324D+00
     beta-beta   T2 =       0.2271659805D-01 E2=     -0.1600315597D-01
 E2(B2PLYP) =    -0.1320601443D+00 E(B2PLYP) =    -0.11446380392588D+03

 **********************************************************************

            Population analysis using the SCF density.

 **********************************************************************

 Orbital symmetries:
       Occupied  (A1) (A1) (A1) (A1) (B2) (A1) (B1) (B2)
       Virtual   (B1) (A1) (A1) (B2) (A1) (B1) (B2) (A1) (A1) (A1)
                 (B2) (B1) (A2) (B2) (A1) (B1) (A1) (B2) (A1) (B1)
                 (A2) (B2) (A1) (A1) (B2) (B1) (A1) (B2) (A1) (A2)
                 (B1) (A1) (B2) (A1) (B2) (B1) (A1) (A2) (B2) (B1)
                 (A1) (B2) (A1) (B1) (A2) (A1) (B2) (A1) (A2) (B1)
                 (B2) (A1) (B2) (B1) (A1) (A2) (A1) (B1) (B2) (A1)
                 (B1) (A1) (B2) (A2) (B2) (A1) (B2) (B1) (A1) (B2)
                 (A2) (A1) (B1) (A1) (A2) (A1) (B1) (B2) (A1) (B2)
                 (A1) (A1)
 The electronic state is 1-A1.
 Alpha  occ. eigenvalues --  -19.74683 -10.72314  -1.17737  -0.75318  -0.58723
 Alpha  occ. eigenvalues --   -0.52817  -0.44288  -0.35206
 Alpha virt. eigenvalues --   -0.00174   0.09978   0.14986   0.15286   0.23559
 Alpha virt. eigenvalues --    0.26158   0.30964   0.45729   0.49279   0.51708
 Alpha virt. eigenvalues --    0.52742   0.57533   0.59806   0.66359   0.77786
 Alpha virt. eigenvalues --    0.82205   0.90236   0.91427   1.05997   1.07256
 Alpha virt. eigenvalues --    1.07704   1.19327   1.24455   1.41651   1.43846
 Alpha virt. eigenvalues --    1.51056   1.52699   1.63554   1.65402   1.77738
 Alpha virt. eigenvalues --    1.98660   2.09594   2.14745   2.25009   2.56637
 Alpha virt. eigenvalues --    2.68824   2.69891   2.73469   2.89557   2.92064
 Alpha virt. eigenvalues --    2.95812   2.97949   2.99364   3.03965   3.05340
 Alpha virt. eigenvalues --    3.07957   3.33278   3.44803   3.47472   3.52453
 Alpha virt. eigenvalues --    3.58352   3.61417   3.86362   3.86707   3.97783
 Alpha virt. eigenvalues --    4.00527   4.07177   4.13161   4.30586   4.42795
 Alpha virt. eigenvalues --    4.68212   4.68613   4.75781   4.93699   5.04013
 Alpha virt. eigenvalues --    5.31945   5.36647   5.38082   5.46158   5.63692
 Alpha virt. eigenvalues --    5.78370   5.91338   6.17590   6.41172   6.53415
 Alpha virt. eigenvalues --    6.70638   6.94463   6.99447   7.18304   7.21901
 Alpha virt. eigenvalues --   23.95169  44.14427
          Condensed to atoms (all electrons):
               1          2          3          4
     1  C    4.451773   0.411368   0.411368   0.555928
     2  H    0.411368   0.630332  -0.078176  -0.054394
     3  H    0.411368  -0.078176   0.630332  -0.054394
     4  O    0.555928  -0.054394  -0.054394   7.904164
 Mulliken charges:
               1
     1  C    0.169564
     2  H    0.090870
     3  H    0.090870
     4  O   -0.351304
 Sum of Mulliken charges =   0.00000
 Mulliken charges with hydrogens summed into heavy atoms:
               1
     1  C    0.351304
     4  O   -0.351304
 Electronic spatial extent (au):  <R**2>=             61.5799
 Charge=              0.0000 electrons
 Dipole moment (field-independent basis, Debye):
    X=              0.0000    Y=              0.0000    Z=             -2.8276  Tot=              2.8276
 Quadrupole moment (field-independent basis, Debye-Ang):
   XX=            -11.7930   YY=            -11.4211   ZZ=            -12.0228
   XY=              0.0000   XZ=              0.0000   YZ=              0.0000
 Traceless Quadrupole moment (field-independent basis, Debye-Ang):
   XX=             -0.0474   YY=              0.3246   ZZ=             -0.2772
   XY=              0.0000   XZ=              0.0000   YZ=              0.0000
 Octapole moment (field-independent basis, Debye-Ang**2):
  XXX=              0.0000  YYY=              0.0000  ZZZ=             -0.0655  XYY=              0.0000
  XXY=              0.0000  XXZ=              0.4835  XZZ=              0.0000  YZZ=              0.0000
  YYZ=             -0.8666  XYZ=              0.0000
 Hexadecapole moment (field-independent basis, Debye-Ang**3):
 XXXX=            -10.7107 YYYY=            -17.2987 ZZZZ=            -46.6833 XXXY=              0.0000
 XXXZ=              0.0000 YYYX=              0.0000 YYYZ=              0.0000 ZZZX=              0.0000
 ZZZY=              0.0000 XXYY=             -5.0139 XXZZ=             -9.5092 YYZZ=            -10.1695
 XXYZ=              0.0000 YYXZ=              0.0000 ZZXY=              0.0000
 N-N= 3.059459430654D+01 E-N=-3.300399298935D+02  KE= 1.138725633605D+02
 Symmetry A1   KE= 1.034979395003D+02
 Symmetry A2   KE= 2.526540674791D-34
 Symmetry B1   KE= 3.538514360473D+00
 Symmetry B2   KE= 6.836109499766D+00
 1|1|UNPC-X500|SP|RB2PLYP-FC|def2TZVPP|C1H2O1|SOBEREVA|02-Feb-2016|0||#
  B2PLYP/def2TZVPP||Title Card Required||0,1|C,0,0.,0.,-0.56221066|H,0,
 0.,-0.92444767,-1.10110537|H,0,0.,0.92444767,-1.10110537|O,0,0.,0.,0.6
 961893||Version=IA32W-G09RevD.01|State=1-A1|HF=-114.3317438|MP2=-114.4
 638039|RMSD=3.321e-009|PG=C02V [C2(C1O1),SGV(H2)]||@


 When I told the people of Northern Ireland that I was
 an atheist, a woman in the audience stood up and said,
 "Yes, but is it the God of the Catholics or the God
 of the Protestants in whom you don't believe?"
                               -- Quentin Crisp
 Job cpu time:       0 days  0 hours  0 minutes  5.0 seconds.
 File lengths (MBytes):  RWF=      5 Int=      0 D2E=      0 Chk=      1 Scr=      1
 Normal termination of Gaussian 09 at Tue Feb 02 16:48:08 2016.
