 Entering Gaussian System, Link 0=g16
 Initial command:
 /home/kimariyb/g16/l1.exe "/home/kimariyb/g16/scratch/Gau-167549.inp" -scrdir="/home/kimariyb/g16/scratch/"
 Default is to use a total of  10 processors:
                               10 via shared-memory
                                1 via Linda
 Entering Link 1 = /home/kimariyb/g16/l1.exe PID=    167551.
  
 Copyright (c) 1988,1990,1992,1993,1995,1998,2003,2009,2016,
            Gaussian, Inc.  All Rights Reserved.
  
 This is part of the Gaussian(R) 16 program.  It is based on
 the Gaussian(R) 09 system (copyright 2009, Gaussian, Inc.),
 the Gaussian(R) 03 system (copyright 2003, Gaussian, Inc.),
 the Gaussian(R) 98 system (copyright 1998, Gaussian, Inc.),
 the Gaussian(R) 94 system (copyright 1995, Gaussian, Inc.),
 the Gaussian 92(TM) system (copyright 1992, Gaussian, Inc.),
 the Gaussian 90(TM) system (copyright 1990, Gaussian, Inc.),
 the Gaussian 88(TM) system (copyright 1988, Gaussian, Inc.),
 the Gaussian 86(TM) system (copyright 1986, Carnegie Mellon
 University), and the Gaussian 82(TM) system (copyright 1983,
 Carnegie Mellon University). Gaussian is a federally registered
 trademark of Gaussian, Inc.
  
 This software contains proprietary and confidential information,
 including trade secrets, belonging to Gaussian, Inc.
  
 This software is provided under written license and may be
 used, copied, transmitted, or stored only in accord with that
 written license.
  
 The following legend is applicable only to US Government
 contracts under FAR:
  
                    RESTRICTED RIGHTS LEGEND
  
 Use, reproduction and disclosure by the US Government is
 subject to restrictions as set forth in subparagraphs (a)
 and (c) of the Commercial Computer Software - Restricted
 Rights clause in FAR 52.227-19.
  
 Gaussian, Inc.
 340 Quinnipiac St., Bldg. 40, Wallingford CT 06492
  
  
 ---------------------------------------------------------------
 Warning -- This program may not be used in any manner that
 competes with the business of Gaussian, Inc. or will provide
 assistance to any competitor of Gaussian, Inc.  The licensee
 of this program is prohibited from giving any competitor of
 Gaussian, Inc. access to this program.  By using this program,
 the user acknowledges that Gaussian, Inc. is engaged in the
 business of creating and licensing software in the field of
 computational chemistry and represents and warrants to the
 licensee that it is not a competitor of Gaussian, Inc. and that
 it will not use this program in any manner prohibited above.
 ---------------------------------------------------------------
  

 Cite this work as:
 Gaussian 16, Revision A.03,
 M. J. Frisch, G. W. Trucks, H. B. Schlegel, G. E. Scuseria, 
 M. A. Robb, J. R. Cheeseman, G. Scalmani, V. Barone, 
 G. A. Petersson, H. Nakatsuji, X. Li, M. Caricato, A. V. Marenich, 
 J. Bloino, B. G. Janesko, R. Gomperts, B. Mennucci, H. P. Hratchian, 
 J. V. Ortiz, A. F. Izmaylov, J. L. Sonnenberg, D. Williams-Young, 
 F. Ding, F. Lipparini, F. Egidi, J. Goings, B. Peng, A. Petrone, 
 T. Henderson, D. Ranasinghe, V. G. Zakrzewski, J. Gao, N. Rega, 
 G. Zheng, W. Liang, M. Hada, M. Ehara, K. Toyota, R. Fukuda, 
 J. Hasegawa, M. Ishida, T. Nakajima, Y. Honda, O. Kitao, H. Nakai, 
 T. Vreven, K. Throssell, J. A. Montgomery, Jr., J. E. Peralta, 
 F. Ogliaro, M. J. Bearpark, J. J. Heyd, E. N. Brothers, K. N. Kudin, 
 V. N. Staroverov, T. A. Keith, R. Kobayashi, J. Normand, 
 K. Raghavachari, A. P. Rendell, J. C. Burant, S. S. Iyengar, 
 J. Tomasi, M. Cossi, J. M. Millam, M. Klene, C. Adamo, R. Cammi, 
 J. W. Ochterski, R. L. Martin, K. Morokuma, O. Farkas, 
 J. B. Foresman, and D. J. Fox, Gaussian, Inc., Wallingford CT, 2016.
 
 ******************************************
 Gaussian 16:  ES64L-G16RevA.03 25-Dec-2016
                21-Jul-2023 
 ******************************************
 -----------------------------------------
 # b2plypd3/def2tzvpp scrf=(solvent=water)
 -----------------------------------------
 1/38=1,172=1/1;
 2/12=2,17=6,18=5,40=1/2;
 3/5=44,7=202,11=9,25=1,30=1,70=2201,72=1,74=-60/1,2,3;
 4//1;
 5/5=2,38=5,53=1/2;
 8/10=1/1;
 9/16=-3/6;
 6/7=2,8=2,9=2,10=2/1;
 99/5=1,9=1/99;
 -------------------
 Title Card Required
 -------------------
 Symbolic Z-matrix:
 Charge =  1 Multiplicity = 1
 O                     0.        0.07861   0. 
 H                    -0.93186  -0.20818   0. 
 H                     0.46593  -0.21035  -0.80646 
 H                     0.46593  -0.21035   0.80646 
 
                          Input orientation:                          
 ---------------------------------------------------------------------
 Center     Atomic      Atomic             Coordinates (Angstroms)
 Number     Number       Type             X           Y           Z
 ---------------------------------------------------------------------
      1          8           0        0.000000    0.078609    0.000000
      2          1           0       -0.931863   -0.208177    0.000000
      3          1           0        0.465931   -0.210348   -0.806457
      4          1           0        0.465931   -0.210348    0.806457
 ---------------------------------------------------------------------
                    Distance matrix (angstroms):
                    1          2          3          4
     1  O    0.000000
     2  H    0.974995   0.000000
     3  H    0.975172   1.613755   0.000000
     4  H    0.975172   1.613755   1.612914   0.000000
 Stoichiometry    H3O(1+)
 Framework group  CS[SG(HO),X(H2)]
 Deg. of freedom     4
 Full point group                 CS      NOp   2
 Largest Abelian subgroup         CS      NOp   2
 Largest concise Abelian subgroup CS      NOp   2
                         Standard orientation:                         
 ---------------------------------------------------------------------
 Center     Atomic      Atomic             Coordinates (Angstroms)
 Number     Number       Type             X           Y           Z
 ---------------------------------------------------------------------
      1          8           0        0.000000    0.078609   -0.000000
      2          1           0        0.931863   -0.208178   -0.000000
      3          1           0       -0.465931   -0.210347    0.806457
      4          1           0       -0.465931   -0.210347   -0.806457
 ---------------------------------------------------------------------
 Rotational constants (GHZ):         332.0107565         331.6133534         192.6227486
 Standard basis: def2TZVPP (5D, 7F)
 There are    51 symmetry adapted cartesian basis functions of A'  symmetry.
 There are    30 symmetry adapted cartesian basis functions of A"  symmetry.
 There are    45 symmetry adapted basis functions of A'  symmetry.
 There are    28 symmetry adapted basis functions of A"  symmetry.
    73 basis functions,   102 primitive gaussians,    81 cartesian basis functions
     5 alpha electrons        5 beta electrons
       nuclear repulsion energy        14.0083116779 Hartrees.
 NAtoms=    4 NActive=    4 NUniq=    3 SFac= 1.78D+00 NAtFMM=   60 NAOKFM=F Big=F
 Integral buffers will be    131072 words long.
 Regular integral format.
 Two-electron integral symmetry is turned on.
 Nuclear repulsion after empirical dispersion term =       14.0078796956 Hartrees.
 ------------------------------------------------------------------------------
 Polarizable Continuum Model (PCM)
 =================================
 Model                : PCM.
 Atomic radii         : UFF (Universal Force Field).
 Polarization charges : Total charges.
 Charge compensation  : None.
 Solution method      : On-the-fly selection.
 Cavity type          : Scaled VdW (van der Waals Surface) (Alpha=1.100).
 Cavity algorithm     : GePol (No added spheres)
                        Default sphere list used, NSphG=    4.
                        Lebedev-Laikov grids with approx.  5.0 points / Ang**2.
                        Smoothing algorithm: York/Karplus (Gamma=1.0000).
                        Polarization charges: spherical gaussians, with
                                              point-specific exponents (IZeta= 3).
                        Self-potential: point-specific (ISelfS= 7).
                        Self-field    : sphere-specific E.n sum rule (ISelfD= 2).
 Solvent              : Water, Eps=  78.355300 Eps(inf)=   1.777849
 ------------------------------------------------------------------------------
 Spheres list:
 ISph  on   Nord     Re0    Alpha      Xe            Ye            Ze
    1   O      1    1.7500  1.100      0.000000      0.078609     -0.000000
    2   H      2    1.4430  1.100      0.931863     -0.208178     -0.000000
    3   H      3    1.4430  1.100     -0.465931     -0.210347      0.806457
    4   H      4    1.4430  1.100     -0.465931     -0.210347     -0.806457
 ------------------------------------------------------------------------------
 One-electron integrals computed using PRISM.
   2 Symmetry operations used in ECPInt.
 ECPInt:  NShTT=     435 NPrTT=    1021 LenC2=     436 LenP2D=    1000.
 LDataN:  DoStor=T MaxTD1= 6 Len=  172
 NBasis=    73 RedAO= T EigKep=  1.39D-03  NBF=    45    28
 NBsUse=    73 1.00D-06 EigRej= -1.00D+00 NBFU=    45    28
 ExpMin= 1.03D-01 ExpMax= 2.70D+04 ExpMxC= 9.22D+02 IAcc=3 IRadAn=         5 AccDes= 0.00D+00
 Harris functional with IExCor=  419 and IRadAn=       5 diagonalized for initial guess.
 HarFok:  IExCor=  419 AccDes= 0.00D+00 IRadAn=         5 IDoV= 1 UseB2=F ITyADJ=14
 ICtDFT=  3500011 ScaDFX=  1.000000  1.000000  1.000000  1.000000
 FoFCou: FMM=F IPFlag=           0 FMFlag=      100000 FMFlg1=           0
         NFxFlg=           0 DoJE=T BraDBF=F KetDBF=T FulRan=T
         wScrn=  0.000000 ICntrl=       500 IOpCl=  0 I1Cent=   200000004 NGrid=           0
         NMat0=    1 NMatS0=      1 NMatT0=    0 NMatD0=    1 NMtDS0=    0 NMtDT0=    0
 Petite list used in FoFCou.
 Initial guess orbital symmetries:
       Occupied  (A') (A') (A') (A") (A')
       Virtual   (A') (A") (A') (A") (A') (A') (A') (A') (A") (A')
                 (A') (A") (A") (A') (A') (A") (A') (A") (A') (A')
                 (A") (A') (A") (A') (A') (A') (A") (A') (A') (A")
                 (A') (A') (A") (A') (A") (A') (A") (A") (A') (A")
                 (A") (A') (A') (A') (A') (A") (A") (A") (A') (A')
                 (A") (A') (A') (A") (A') (A') (A") (A') (A') (A")
                 (A') (A") (A') (A") (A') (A") (A') (A')
 The electronic state of the initial guess is 1-A'.
 Keep R1 ints in memory in symmetry-blocked form, NReq=12701017.
 Requested convergence on RMS density matrix=1.00D-08 within 128 cycles.
 Requested convergence on MAX density matrix=1.00D-06.
 Requested convergence on             energy=1.00D-06.
 No special actions if energy rises.
 Inv3:  Mode=1 IEnd=      559872.
 Iteration    1 A*A^-1 deviation from unit magnitude is 2.89D-15 for     41.
 Iteration    1 A*A^-1 deviation from orthogonality  is 1.17D-15 for    293    184.
 Iteration    1 A^-1*A deviation from unit magnitude is 2.66D-15 for      5.
 Iteration    1 A^-1*A deviation from orthogonality  is 1.17D-15 for    370     65.
 Error on total polarization charges = -0.00043
 SCF Done:  E(RB2PLYPD3) =  -76.7312426855     A.U. after    8 cycles
            NFock=  8  Conv=0.32D-08     -V/T= 2.0045
 DoSCS=T DFT=T ScalE2(SS,OS)=  0.270000  0.270000
 ExpMin= 1.03D-01 ExpMax= 2.70D+04 ExpMxC= 9.22D+02 IAcc=3 IRadAn=         5 AccDes= 0.00D+00
 HarFok:  IExCor=  205 AccDes= 0.00D+00 IRadAn=         5 IDoV=-2 UseB2=F ITyADJ=14
 ICtDFT= 12500011 ScaDFX=  1.000000  1.000000  1.000000  1.000000
 Range of M.O.s used for correlation:     2    73
 NBasis=    73 NAE=     5 NBE=     5 NFC=     1 NFV=     0
 NROrb=     72 NOA=     4 NOB=     4 NVA=    68 NVB=    68
 DoSCS=T DFT=T ScalE2(SS,OS)=  0.270000  0.270000
 Fully in-core method, ICMem=    18214620.
 JobTyp=1 Pass  1 fully in-core, NPsUse= 10.
 Spin components of T(2) and E(2):
     alpha-alpha T2 =       0.9731016813D-02 E2=     -0.9534089198D-02
     alpha-beta  T2 =       0.6038959653D-01 E2=     -0.6184008342D-01
     beta-beta   T2 =       0.9731016813D-02 E2=     -0.9534089198D-02
 E2(B2PLYPD3) =    -0.8090826182D-01 E(B2PLYPD3) =    -0.76812150947354D+02

 **********************************************************************

            Population analysis using the SCF density.

 **********************************************************************

 Orbital symmetries:
       Occupied  (A') (A') (A') (A") (A')
       Virtual   (A') (A") (A') (A") (A') (A') (A') (A') (A") (A')
                 (A') (A") (A") (A') (A') (A") (A') (A") (A') (A')
                 (A") (A') (A") (A') (A') (A') (A") (A') (A') (A")
                 (A') (A") (A') (A') (A") (A") (A') (A") (A') (A")
                 (A") (A') (A') (A') (A") (A') (A") (A") (A') (A')
                 (A") (A') (A') (A") (A') (A') (A") (A') (A") (A')
                 (A') (A") (A') (A") (A') (A") (A') (A')
 The electronic state is 1-A'.
 Alpha  occ. eigenvalues --  -19.92386  -1.35935  -0.78186  -0.78156  -0.59774
 Alpha virt. eigenvalues --    0.01030   0.10446   0.10451   0.33099   0.33127
 Alpha virt. eigenvalues --    0.36932   0.40863   0.50952   0.50952   0.56657
 Alpha virt. eigenvalues --    0.57918   0.57956   0.93813   0.97805   1.04004
 Alpha virt. eigenvalues --    1.04032   1.20686   1.23229   1.23262   1.69460
 Alpha virt. eigenvalues --    1.69469   1.85794   1.86849   1.86858   2.11232
 Alpha virt. eigenvalues --    2.33620   2.33672   2.69356   3.19102   3.19134
 Alpha virt. eigenvalues --    3.21490   3.21585   3.22126   3.26194   3.28253
 Alpha virt. eigenvalues --    3.34411   3.34439   3.41357   3.65244   3.65296
 Alpha virt. eigenvalues --    3.71358   3.71389   3.76399   4.08266   4.08298
 Alpha virt. eigenvalues --    4.10247   4.29039   4.60376   4.60429   4.64662
 Alpha virt. eigenvalues --    4.75332   4.75378   5.04669   5.38684   5.38801
 Alpha virt. eigenvalues --    6.29927   6.55052   6.55125   6.79355   6.79429
 Alpha virt. eigenvalues --    6.82461   7.13766   7.32410   7.32534   7.40570
 Alpha virt. eigenvalues --    7.40633   7.92743  44.24065
          Condensed to atoms (all electrons):
               1          2          3          4
     1  O    7.026655   0.347696   0.347617   0.347617
     2  H    0.347696   0.326229  -0.015238  -0.015238
     3  H    0.347617  -0.015238   0.326317  -0.015213
     4  H    0.347617  -0.015238  -0.015213   0.326317
 Mulliken charges:
               1
     1  O   -0.069585
     2  H    0.356551
     3  H    0.356517
     4  H    0.356517
 Sum of Mulliken charges =   1.00000
 Mulliken charges with hydrogens summed into heavy atoms:
               1
     1  O    1.000000
 Electronic spatial extent (au):  <R**2>=             18.2337
 Charge=              1.0000 electrons
 Dipole moment (field-independent basis, Debye):
    X=              0.0006    Y=             -1.6563    Z=             -0.0000  Tot=              1.6563
 Quadrupole moment (field-independent basis, Debye-Ang):
   XX=             -2.4965   YY=             -6.1513   ZZ=             -2.5023
   XY=              0.0062   XZ=              0.0000   YZ=              0.0000
 Traceless Quadrupole moment (field-independent basis, Debye-Ang):
   XX=              1.2202   YY=             -2.4346   ZZ=              1.2144
   XY=              0.0062   XZ=              0.0000   YZ=              0.0000
 Octapole moment (field-independent basis, Debye-Ang**2):
  XXX=              1.7251  YYY=             -0.7829  ZZZ=              0.0000  XYY=             -0.0021
  XXY=             -0.9809  XXZ=             -0.0000  XZZ=             -1.7218  YZZ=             -0.9852
  YYZ=              0.0000  XYZ=             -0.0000
 Hexadecapole moment (field-independent basis, Debye-Ang**3):
 XXXX=             -3.1494 YYYY=             -4.9561 ZZZZ=             -3.1562 XXXY=             -0.4222
 XXXZ=              0.0000 YYYX=             -0.0003 YYYZ=             -0.0000 ZZZX=              0.0000
 ZZZY=              0.0000 XXYY=             -1.6320 XXZZ=             -1.0509 YYZZ=             -1.6294
 XXYZ=              0.0000 YYXZ=             -0.0000 ZZXY=              0.4260
 N-N= 1.400787969564D+01 E-N=-2.050751579040D+02  KE= 7.639120507104D+01
 Symmetry A'   KE= 7.245800255984D+01
 Symmetry A"   KE= 3.933202511197D+00
 1\1\GINC-LOCALHOST\SP\RB2PLYPD3-FC\def2TZVPP\H3O1(1+)\KIMARIYB\21-Jul-
 2023\0\\# b2plypd3/def2tzvpp scrf=(solvent=water)\\Title Card Required
 \\1,1\O,0,0.,0.078609,0.\H,0,-0.931863,-0.208177,0.\H,0,0.465931,-0.21
 0348,-0.806457\H,0,0.465931,-0.210348,0.806457\\Version=ES64L-G16RevA.
 03\State=1-A'\HF=-76.7312427\MP2=-76.8121509\RMSD=3.208e-09\PG=CS [SG(
 H1O1),X(H2)]\\@


 TIME IS IN FACT THE HERO OF THE PLOT. THE TIME
 WITH WHICH WE HAVE TO DEAL IS OF THE ORDER OF TWO
 BILLION YEARS...GIVEN SO MUCH TIME, THE "IMPOSSIBLE"
 BECOMES POSSIBLE, THE POSSIBLE PROBABLE, THE PROBABLE
 VIRTUALLY CERTAIN.  ONE HAS ONLY TO WAIT, TIME
 ITSELF PERFORMS THE MIRACLES.
 "ORIGIN OF LIFE" LECTURES, GEORGE WALD, 1954
 Job cpu time:       0 days  0 hours  0 minutes 14.6 seconds.
 Elapsed time:       0 days  0 hours  0 minutes  1.6 seconds.
 File lengths (MBytes):  RWF=     10 Int=      0 D2E=      0 Chk=      2 Scr=      1
 Normal termination of Gaussian 16 at Fri Jul 21 15:15:38 2023.
