 Entering Gaussian System, Link 0=g16
 Initial command:
 /home/kimariyb/g16/l1.exe "/home/kimariyb/g16/scratch/Gau-171276.inp" -scrdir="/home/kimariyb/g16/scratch/"
 Default is to use a total of  10 processors:
                               10 via shared-memory
                                1 via Linda
 Entering Link 1 = /home/kimariyb/g16/l1.exe PID=    171277.
  
 Copyright (c) 1988,1990,1992,1993,1995,1998,2003,2009,2016,
            Gaussian, Inc.  All Rights Reserved.
  
 This is part of the Gaussian(R) 16 program.  It is based on
 the Gaussian(R) 09 system (copyright 2009, Gaussian, Inc.),
 the Gaussian(R) 03 system (copyright 2003, Gaussian, Inc.),
 the Gaussian(R) 98 system (copyright 1998, Gaussian, Inc.),
 the Gaussian(R) 94 system (copyright 1995, Gaussian, Inc.),
 the Gaussian 92(TM) system (copyright 1992, Gaussian, Inc.),
 the Gaussian 90(TM) system (copyright 1990, Gaussian, Inc.),
 the Gaussian 88(TM) system (copyright 1988, Gaussian, Inc.),
 the Gaussian 86(TM) system (copyright 1986, Carnegie Mellon
 University), and the Gaussian 82(TM) system (copyright 1983,
 Carnegie Mellon University). Gaussian is a federally registered
 trademark of Gaussian, Inc.
  
 This software contains proprietary and confidential information,
 including trade secrets, belonging to Gaussian, Inc.
  
 This software is provided under written license and may be
 used, copied, transmitted, or stored only in accord with that
 written license.
  
 The following legend is applicable only to US Government
 contracts under FAR:
  
                    RESTRICTED RIGHTS LEGEND
  
 Use, reproduction and disclosure by the US Government is
 subject to restrictions as set forth in subparagraphs (a)
 and (c) of the Commercial Computer Software - Restricted
 Rights clause in FAR 52.227-19.
  
 Gaussian, Inc.
 340 Quinnipiac St., Bldg. 40, Wallingford CT 06492
  
  
 ---------------------------------------------------------------
 Warning -- This program may not be used in any manner that
 competes with the business of Gaussian, Inc. or will provide
 assistance to any competitor of Gaussian, Inc.  The licensee
 of this program is prohibited from giving any competitor of
 Gaussian, Inc. access to this program.  By using this program,
 the user acknowledges that Gaussian, Inc. is engaged in the
 business of creating and licensing software in the field of
 computational chemistry and represents and warrants to the
 licensee that it is not a competitor of Gaussian, Inc. and that
 it will not use this program in any manner prohibited above.
 ---------------------------------------------------------------
  

 Cite this work as:
 Gaussian 16, Revision A.03,
 M. J. Frisch, G. W. Trucks, H. B. Schlegel, G. E. Scuseria, 
 M. A. Robb, J. R. Cheeseman, G. Scalmani, V. Barone, 
 G. A. Petersson, H. Nakatsuji, X. Li, M. Caricato, A. V. Marenich, 
 J. Bloino, B. G. Janesko, R. Gomperts, B. Mennucci, H. P. Hratchian, 
 J. V. Ortiz, A. F. Izmaylov, J. L. Sonnenberg, D. Williams-Young, 
 F. Ding, F. Lipparini, F. Egidi, J. Goings, B. Peng, A. Petrone, 
 T. Henderson, D. Ranasinghe, V. G. Zakrzewski, J. Gao, N. Rega, 
 G. Zheng, W. Liang, M. Hada, M. Ehara, K. Toyota, R. Fukuda, 
 J. Hasegawa, M. Ishida, T. Nakajima, Y. Honda, O. Kitao, H. Nakai, 
 T. Vreven, K. Throssell, J. A. Montgomery, Jr., J. E. Peralta, 
 F. Ogliaro, M. J. Bearpark, J. J. Heyd, E. N. Brothers, K. N. Kudin, 
 V. N. Staroverov, T. A. Keith, R. Kobayashi, J. Normand, 
 K. Raghavachari, A. P. Rendell, J. C. Burant, S. S. Iyengar, 
 J. Tomasi, M. Cossi, J. M. Millam, M. Klene, C. Adamo, R. Cammi, 
 J. W. Ochterski, R. L. Martin, K. Morokuma, O. Farkas, 
 J. B. Foresman, and D. J. Fox, Gaussian, Inc., Wallingford CT, 2016.
 
 ******************************************
 Gaussian 16:  ES64L-G16RevA.03 25-Dec-2016
                23-Jul-2023 
 ******************************************
 -------------------------
 # b3lyp/6-311g** opt freq
 -------------------------
 1/18=20,19=15,26=3,38=1/1,3;
 2/9=110,12=2,17=6,18=5,40=1/2;
 3/5=4,6=6,7=101,11=2,25=1,30=1,71=1,74=-5/1,2,3;
 4//1;
 5/5=2,38=5/2;
 6/7=2,8=2,9=2,10=2,28=1/1;
 7//1,2,3,16;
 1/18=20,19=15,26=3/3(2);
 2/9=110/2;
 99//99;
 2/9=110/2;
 3/5=4,6=6,7=101,11=2,25=1,30=1,71=1,74=-5/1,2,3;
 4/5=5,16=3,69=1/1;
 5/5=2,38=5/2;
 7//1,2,3,16;
 1/18=20,19=15,26=3/3(-5);
 2/9=110/2;
 6/7=2,8=2,9=2,10=2,19=2,28=1/1;
 99/9=1/99;
 -------------------
 Title Card Required
 -------------------
 Symbolic Z-matrix:
 Charge =  0 Multiplicity = 1
 C                    -1.05888  -0.44421   0. 
 O                     0.19952  -0.44421   0. 
 O                    -2.31728  -0.44421   0. 
 

 GradGradGradGradGradGradGradGradGradGradGradGradGradGradGradGradGradGrad
 Berny optimization.
 Initialization pass.
                           ----------------------------
                           !    Initial Parameters    !
                           ! (Angstroms and Degrees)  !
 --------------------------                            --------------------------
 ! Name  Definition              Value          Derivative Info.                !
 --------------------------------------------------------------------------------
 ! R1    R(1,2)                  1.2584         estimate D2E/DX2                !
 ! R2    R(1,3)                  1.2584         estimate D2E/DX2                !
 ! A1    L(2,1,3,-2,-1)        180.0            estimate D2E/DX2                !
 ! A2    L(2,1,3,-3,-2)        180.0            estimate D2E/DX2                !
 --------------------------------------------------------------------------------
 Trust Radius=3.00D-01 FncErr=1.00D-07 GrdErr=1.00D-06 EigMax=2.50D+02 EigMin=1.00D-04
 Number of steps in this run=     20 maximum allowed number of steps=    100.
 GradGradGradGradGradGradGradGradGradGradGradGradGradGradGradGradGradGrad

                          Input orientation:                          
 ---------------------------------------------------------------------
 Center     Atomic      Atomic             Coordinates (Angstroms)
 Number     Number       Type             X           Y           Z
 ---------------------------------------------------------------------
      1          6           0       -1.058884   -0.444215    0.000000
      2          8           0        0.199516   -0.444215    0.000000
      3          8           0       -2.317284   -0.444215    0.000000
 ---------------------------------------------------------------------
                    Distance matrix (angstroms):
                    1          2          3
     1  C    0.000000
     2  O    1.258400   0.000000
     3  O    1.258400   2.516800   0.000000
 Stoichiometry    CO2
 Framework group  D*H[O(C),C*(O.O)]
 Deg. of freedom     1
 Full point group                 D*H     NOp   8
 Largest Abelian subgroup         D2H     NOp   8
 Largest concise Abelian subgroup C2      NOp   2
                         Standard orientation:                         
 ---------------------------------------------------------------------
 Center     Atomic      Atomic             Coordinates (Angstroms)
 Number     Number       Type             X           Y           Z
 ---------------------------------------------------------------------
      1          6           0        0.000000    0.000000    0.000000
      2          8           0        0.000000    0.000000    1.258400
      3          8           0        0.000000    0.000000   -1.258400
 ---------------------------------------------------------------------
 Rotational constants (GHZ):           0.0000000           9.9762623           9.9762623
 Standard basis: 6-311G(d,p) (5D, 7F)
 There are    17 symmetry adapted cartesian basis functions of AG  symmetry.
 There are     2 symmetry adapted cartesian basis functions of B1G symmetry.
 There are     5 symmetry adapted cartesian basis functions of B2G symmetry.
 There are     5 symmetry adapted cartesian basis functions of B3G symmetry.
 There are     1 symmetry adapted cartesian basis functions of AU  symmetry.
 There are    13 symmetry adapted cartesian basis functions of B1U symmetry.
 There are     7 symmetry adapted cartesian basis functions of B2U symmetry.
 There are     7 symmetry adapted cartesian basis functions of B3U symmetry.
 There are    15 symmetry adapted basis functions of AG  symmetry.
 There are     2 symmetry adapted basis functions of B1G symmetry.
 There are     5 symmetry adapted basis functions of B2G symmetry.
 There are     5 symmetry adapted basis functions of B3G symmetry.
 There are     1 symmetry adapted basis functions of AU  symmetry.
 There are    12 symmetry adapted basis functions of B1U symmetry.
 There are     7 symmetry adapted basis functions of B2U symmetry.
 There are     7 symmetry adapted basis functions of B3U symmetry.
    54 basis functions,    96 primitive gaussians,    57 cartesian basis functions
    11 alpha electrons       11 beta electrons
       nuclear repulsion energy        53.8260354401 Hartrees.
 NAtoms=    3 NActive=    3 NUniq=    2 SFac= 2.25D+00 NAtFMM=   60 NAOKFM=F Big=F
 Integral buffers will be    131072 words long.
 Raffenetti 2 integral format.
 Two-electron integral symmetry is turned on.
 One-electron integrals computed using PRISM.
 NBasis=    54 RedAO= T EigKep=  1.00D-02  NBF=    15     2     5     5     1    12     7     7
 NBsUse=    54 1.00D-06 EigRej= -1.00D+00 NBFU=    15     2     5     5     1    12     7     7
 ExpMin= 1.46D-01 ExpMax= 8.59D+03 ExpMxC= 1.30D+03 IAcc=3 IRadAn=         5 AccDes= 0.00D+00
 Harris functional with IExCor=  402 and IRadAn=       5 diagonalized for initial guess.
 HarFok:  IExCor=  402 AccDes= 0.00D+00 IRadAn=         5 IDoV= 1 UseB2=F ITyADJ=14
 ICtDFT=  3500011 ScaDFX=  1.000000  1.000000  1.000000  1.000000
 FoFCou: FMM=F IPFlag=           0 FMFlag=      100000 FMFlg1=           0
         NFxFlg=           0 DoJE=T BraDBF=F KetDBF=T FulRan=T
         wScrn=  0.000000 ICntrl=       500 IOpCl=  0 I1Cent=   200000004 NGrid=           0
         NMat0=    1 NMatS0=      1 NMatT0=    0 NMatD0=    1 NMtDS0=    0 NMtDT0=    0
 Petite list used in FoFCou.
 Initial guess orbital symmetries:
       Occupied  (SGU) (SGG) (SGG) (SGG) (SGU) (SGG) (SGU) (PIU)
                 (PIU) (PIG) (PIG)
       Virtual   (PIU) (PIU) (SGG) (SGU) (PIU) (PIU) (SGG) (SGU)
                 (SGG) (PIG) (PIG) (SGU) (PIU) (PIU) (SGG) (DLTG)
                 (DLTG) (PIG) (PIG) (SGU) (SGG) (PIU) (PIU) (DLTU)
                 (DLTU) (DLTG) (DLTG) (PIU) (PIU) (SGU) (PIG) (PIG)
                 (SGG) (SGU) (PIG) (PIG) (PIU) (PIU) (SGU) (SGG)
                 (SGG) (SGU) (SGG)
 The electronic state of the initial guess is 1-SGG.
 Keep R1 ints in memory in symmetry-blocked form, NReq=9906823.
 Requested convergence on RMS density matrix=1.00D-08 within 128 cycles.
 Requested convergence on MAX density matrix=1.00D-06.
 Requested convergence on             energy=1.00D-06.
 No special actions if energy rises.
 Integral accuracy reduced to 1.0D-05 until final iterations.
 Initial convergence to 1.0D-05 achieved.  Increase integral accuracy.
 SCF Done:  E(RB3LYP) =  -188.609751865     A.U. after   10 cycles
            NFock= 10  Conv=0.52D-08     -V/T= 2.0062

 **********************************************************************

            Population analysis using the SCF density.

 **********************************************************************

 Orbital symmetries:
       Occupied  (SGU) (SGG) (SGG) (SGG) (SGU) (SGG) (SGU) (PIU)
                 (PIU) (PIG) (PIG)
       Virtual   (PIU) (PIU) (SGG) (SGU) (PIU) (PIU) (SGG) (SGU)
                 (SGG) (PIG) (PIG) (SGU) (PIU) (PIU) (DLTG) (DLTG)
                 (SGG) (PIG) (PIG) (SGU) (SGG) (PIU) (PIU) (DLTU)
                 (DLTU) (DLTG) (DLTG) (SGU) (PIU) (PIU) (PIG) (PIG)
                 (SGG) (SGU) (PIG) (PIG) (PIU) (PIU) (SGU) (SGG)
                 (SGG) (SGU) (SGG)
 The electronic state is 1-SGG.
 Alpha  occ. eigenvalues --  -19.22363 -19.22362 -10.39651  -1.12583  -1.08716
 Alpha  occ. eigenvalues --   -0.58369  -0.52017  -0.49127  -0.49127  -0.37430
 Alpha  occ. eigenvalues --   -0.37430
 Alpha virt. eigenvalues --   -0.03324  -0.03324   0.01543   0.30581   0.36031
 Alpha virt. eigenvalues --    0.36031   0.41685   0.57136   0.70536   0.74362
 Alpha virt. eigenvalues --    0.74362   0.81644   0.90324   0.90324   1.19473
 Alpha virt. eigenvalues --    1.19473   1.24014   1.30399   1.30399   1.56764
 Alpha virt. eigenvalues --    2.31609   2.37714   2.37714   2.74106   2.74106
 Alpha virt. eigenvalues --    2.80471   2.80471   3.00863   3.01364   3.01364
 Alpha virt. eigenvalues --    3.41768   3.41768   3.57011   3.60151   4.78476
 Alpha virt. eigenvalues --    4.78476   4.79672   4.79672   5.28191   5.40441
 Alpha virt. eigenvalues --   23.77320  49.78463  49.81503
          Condensed to atoms (all electrons):
               1          2          3
     1  C    4.359774   0.559660   0.559660
     2  O    0.559660   7.735880  -0.035087
     3  O    0.559660  -0.035087   7.735880
 Mulliken charges:
               1
     1  C    0.520906
     2  O   -0.260453
     3  O   -0.260453
 Sum of Mulliken charges =   0.00000
 Mulliken charges with hydrogens summed into heavy atoms:
               1
     1  C    0.520906
     2  O   -0.260453
     3  O   -0.260453
 Electronic spatial extent (au):  <R**2>=            127.3803
 Charge=              0.0000 electrons
 Dipole moment (field-independent basis, Debye):
    X=             -0.0000    Y=             -0.0000    Z=              0.0000  Tot=              0.0000
 Quadrupole moment (field-independent basis, Debye-Ang):
   XX=            -15.0319   YY=            -15.0319   ZZ=            -19.5678
   XY=              0.0000   XZ=              0.0000   YZ=              0.0000
 Traceless Quadrupole moment (field-independent basis, Debye-Ang):
   XX=              1.5120   YY=              1.5120   ZZ=             -3.0239
   XY=              0.0000   XZ=              0.0000   YZ=              0.0000
 Octapole moment (field-independent basis, Debye-Ang**2):
  XXX=             -0.0000  YYY=             -0.0000  ZZZ=              0.0000  XYY=             -0.0000
  XXY=              0.0000  XXZ=             -0.0000  XZZ=             -0.0000  YZZ=             -0.0000
  YYZ=             -0.0000  XYZ=             -0.0000
 Hexadecapole moment (field-independent basis, Debye-Ang**3):
 XXXX=            -11.6356 YYYY=            -11.6356 ZZZZ=           -116.5623 XXXY=              0.0000
 XXXZ=              0.0000 YYYX=              0.0000 YYYZ=              0.0000 ZZZX=              0.0000
 ZZZY=              0.0000 XXYY=             -3.8785 XXZZ=            -20.9749 YYZZ=            -20.9749
 XXYZ=              0.0000 YYXZ=              0.0000 ZZXY=             -0.0000
 N-N= 5.382603544005D+01 E-N=-5.515066391526D+02  KE= 1.874481951241D+02
 Symmetry AG   KE= 1.010857428532D+02
 Symmetry B1G  KE= 8.008848134505D-34
 Symmetry B2G  KE= 4.948645327221D+00
 Symmetry B3G  KE= 4.948645327221D+00
 Symmetry AU   KE= 9.094460756836D-35
 Symmetry B1U  KE= 6.917849773525D+01
 Symmetry B2U  KE= 3.643331940586D+00
 Symmetry B3U  KE= 3.643331940586D+00
 Calling FoFJK, ICntrl=      2127 FMM=F ISym2X=1 I1Cent= 0 IOpClX= 0 NMat=1 NMatS=1 NMatT=0.
 ***** Axes restored to original set *****
 -------------------------------------------------------------------
 Center     Atomic                   Forces (Hartrees/Bohr)
 Number     Number              X              Y              Z
 -------------------------------------------------------------------
      1        6          -0.000000000    0.000000000   -0.000000000
      2        8          -0.151035779   -0.000000000    0.000000000
      3        8           0.151035779   -0.000000000    0.000000000
 -------------------------------------------------------------------
 Cartesian Forces:  Max     0.151035779 RMS     0.071198949

 GradGradGradGradGradGradGradGradGradGradGradGradGradGradGradGradGradGrad
 Berny optimization.
 FormGI is forming the generalized inverse of G from B-inverse, IUseBI=4.
 Internal  Forces:  Max     0.151035779 RMS     0.106798424
 Search for a local minimum.
 Step number   1 out of a maximum of   20
 All quantities printed in internal units (Hartrees-Bohrs-Radians)
 Mixed Optimization -- RFO/linear search
 Second derivative matrix not updated -- first step.
 The second derivative matrix:
                          R1        R2        A1        A2
           R1           0.80209
           R2           0.00000   0.80209
           A1           0.00000   0.00000   0.03565
           A2           0.00000   0.00000   0.00000   0.03565
 ITU=  0
     Eigenvalues ---    0.03565   0.03565   0.80209   0.80209
 RFO step:  Lambda=-5.33345969D-02 EMin= 3.56487692D-02
 Linear search not attempted -- first point.
 Iteration  1 RMS(Cart)=  0.12484875 RMS(Int)=  0.00000000
 Iteration  2 RMS(Cart)=  0.00000000 RMS(Int)=  0.00000001
 ClnCor:  largest displacement from symmetrization is 1.16D-13 for atom     1.
 Variable       Old X    -DE/DX   Delta X   Delta X   Delta X     New X
                                 (Linear)    (Quad)   (Total)
    R1        2.37803  -0.15104   0.00000  -0.17656  -0.17656   2.20147
    R2        2.37803  -0.15104   0.00000  -0.17656  -0.17656   2.20147
    A1        3.14159  -0.00000   0.00000  -0.00000   0.00000   3.14159
    A2        3.14159  -0.00000   0.00000  -0.00000   0.00000   3.14159
         Item               Value     Threshold  Converged?
 Maximum Force            0.151036     0.000450     NO 
 RMS     Force            0.106798     0.000300     NO 
 Maximum Displacement     0.176563     0.001800     NO 
 RMS     Displacement     0.124849     0.001200     NO 
 Predicted change in Energy=-2.832998D-02
 GradGradGradGradGradGradGradGradGradGradGradGradGradGradGradGradGradGrad

                          Input orientation:                          
 ---------------------------------------------------------------------
 Center     Atomic      Atomic             Coordinates (Angstroms)
 Number     Number       Type             X           Y           Z
 ---------------------------------------------------------------------
      1          6           0       -1.058884   -0.444215    0.000000
      2          8           0        0.106083   -0.444215    0.000000
      3          8           0       -2.223851   -0.444215   -0.000000
 ---------------------------------------------------------------------
                    Distance matrix (angstroms):
                    1          2          3
     1  C    0.000000
     2  O    1.164967   0.000000
     3  O    1.164967   2.329934   0.000000
 Stoichiometry    CO2
 Framework group  D*H[O(C),C*(O.O)]
 Deg. of freedom     1
 Full point group                 D*H     NOp   8
 Largest Abelian subgroup         D2H     NOp   8
 Largest concise Abelian subgroup C2      NOp   2
                         Standard orientation:                         
 ---------------------------------------------------------------------
 Center     Atomic      Atomic             Coordinates (Angstroms)
 Number     Number       Type             X           Y           Z
 ---------------------------------------------------------------------
      1          6           0        0.000000    0.000000    0.000000
      2          8           0        0.000000    0.000000    1.164967
      3          8           0        0.000000    0.000000   -1.164967
 ---------------------------------------------------------------------
 Rotational constants (GHZ):           0.0000000          11.6406716          11.6406716
 Standard basis: 6-311G(d,p) (5D, 7F)
 There are    17 symmetry adapted cartesian basis functions of AG  symmetry.
 There are     2 symmetry adapted cartesian basis functions of B1G symmetry.
 There are     5 symmetry adapted cartesian basis functions of B2G symmetry.
 There are     5 symmetry adapted cartesian basis functions of B3G symmetry.
 There are     1 symmetry adapted cartesian basis functions of AU  symmetry.
 There are    13 symmetry adapted cartesian basis functions of B1U symmetry.
 There are     7 symmetry adapted cartesian basis functions of B2U symmetry.
 There are     7 symmetry adapted cartesian basis functions of B3U symmetry.
 There are    15 symmetry adapted basis functions of AG  symmetry.
 There are     2 symmetry adapted basis functions of B1G symmetry.
 There are     5 symmetry adapted basis functions of B2G symmetry.
 There are     5 symmetry adapted basis functions of B3G symmetry.
 There are     1 symmetry adapted basis functions of AU  symmetry.
 There are    12 symmetry adapted basis functions of B1U symmetry.
 There are     7 symmetry adapted basis functions of B2U symmetry.
 There are     7 symmetry adapted basis functions of B3U symmetry.
    54 basis functions,    96 primitive gaussians,    57 cartesian basis functions
    11 alpha electrons       11 beta electrons
       nuclear repulsion energy        58.1430062997 Hartrees.
 NAtoms=    3 NActive=    3 NUniq=    2 SFac= 2.25D+00 NAtFMM=   60 NAOKFM=F Big=F
 Integral buffers will be    131072 words long.
 Raffenetti 2 integral format.
 Two-electron integral symmetry is turned on.
 One-electron integrals computed using PRISM.
 NBasis=    54 RedAO= T EigKep=  8.25D-03  NBF=    15     2     5     5     1    12     7     7
 NBsUse=    54 1.00D-06 EigRej= -1.00D+00 NBFU=    15     2     5     5     1    12     7     7
 Initial guess from the checkpoint file:  "/home/kimariyb/g16/scratch/Gau-171277.chk"
 B after Tr=    -0.000000    0.000000   -0.000000
         Rot=    1.000000    0.000000    0.000000    0.000000 Ang=   0.00 deg.
 Initial guess orbital symmetries:
       Occupied  (SGU) (SGG) (SGG) (SGG) (SGU) (SGG) (SGU) (PIU)
                 (PIU) (PIG) (PIG)
       Virtual   (PIU) (PIU) (SGG) (SGU) (PIU) (PIU) (SGG) (SGU)
                 (SGG) (PIG) (PIG) (SGU) (PIU) (PIU) (DLTG) (DLTG)
                 (SGG) (PIG) (PIG) (SGU) (SGG) (PIU) (PIU) (DLTU)
                 (DLTU) (DLTG) (DLTG) (SGU) (PIU) (PIU) (PIG) (PIG)
                 (SGG) (SGU) (PIG) (PIG) (PIU) (PIU) (SGU) (SGG)
                 (SGG) (SGU) (SGG)
 ExpMin= 1.46D-01 ExpMax= 8.59D+03 ExpMxC= 1.30D+03 IAcc=2 IRadAn=         4 AccDes= 0.00D+00
 Harris functional with IExCor=  402 and IRadAn=       4 diagonalized for initial guess.
 HarFok:  IExCor=  402 AccDes= 0.00D+00 IRadAn=         4 IDoV= 1 UseB2=F ITyADJ=14
 ICtDFT=  3500011 ScaDFX=  1.000000  1.000000  1.000000  1.000000
 FoFCou: FMM=F IPFlag=           0 FMFlag=      100000 FMFlg1=           0
         NFxFlg=           0 DoJE=T BraDBF=F KetDBF=T FulRan=T
         wScrn=  0.000000 ICntrl=       500 IOpCl=  0 I1Cent=   200000004 NGrid=           0
         NMat0=    1 NMatS0=      1 NMatT0=    0 NMatD0=    1 NMtDS0=    0 NMtDT0=    0
 Petite list used in FoFCou.
 Keep R1 ints in memory in symmetry-blocked form, NReq=9906823.
 Requested convergence on RMS density matrix=1.00D-08 within 128 cycles.
 Requested convergence on MAX density matrix=1.00D-06.
 Requested convergence on             energy=1.00D-06.
 No special actions if energy rises.
 Integral accuracy reduced to 1.0D-05 until final iterations.
 Initial convergence to 1.0D-05 achieved.  Increase integral accuracy.
 SCF Done:  E(RB3LYP) =  -188.641055657     A.U. after   10 cycles
            NFock= 10  Conv=0.13D-08     -V/T= 2.0028
 Calling FoFJK, ICntrl=      2127 FMM=F ISym2X=1 I1Cent= 0 IOpClX= 0 NMat=1 NMatS=1 NMatT=0.
 ***** Axes restored to original set *****
 -------------------------------------------------------------------
 Center     Atomic                   Forces (Hartrees/Bohr)
 Number     Number              X              Y              Z
 -------------------------------------------------------------------
      1        6           0.000000000    0.000000000   -0.000000000
      2        8          -0.009654406   -0.000000000    0.000000000
      3        8           0.009654406   -0.000000000    0.000000000
 -------------------------------------------------------------------
 Cartesian Forces:  Max     0.009654406 RMS     0.004551131

 GradGradGradGradGradGradGradGradGradGradGradGradGradGradGradGradGradGrad
 Berny optimization.
 Using GEDIIS/GDIIS optimizer.
 Internal  Forces:  Max     0.009654406 RMS     0.006826696
 Search for a local minimum.
 Step number   2 out of a maximum of   20
 All quantities printed in internal units (Hartrees-Bohrs-Radians)
 Mixed Optimization -- RFO/linear search
 Update second derivatives using D2CorX and points    1    2
 DE= -3.13D-02 DEPred=-2.83D-02 R= 1.10D+00
 TightC=F SS=  1.41D+00  RLast= 2.50D-01 DXNew= 5.0454D-01 7.4909D-01
 Trust test= 1.10D+00 RLast= 2.50D-01 DXMaxT set to 5.05D-01
 The second derivative matrix:
                          R1        R2        A1        A2
           R1           0.80142
           R2          -0.00067   0.80142
           A1          -0.00000  -0.00000   0.03565
           A2          -0.00000  -0.00000   0.00000   0.03565
 ITU=  1  0
 Use linear search instead of GDIIS.
     Eigenvalues ---    0.03565   0.03565   0.80074   0.80209
 RFO step:  Lambda= 0.00000000D+00 EMin= 3.56487692D-02
 Quartic linear search produced a step of  0.04900.
 Iteration  1 RMS(Cart)=  0.00611714 RMS(Int)=  0.00000000
 Iteration  2 RMS(Cart)=  0.00000000 RMS(Int)=  0.00000000
 ClnCor:  largest displacement from symmetrization is 3.06D-13 for atom     1.
 Variable       Old X    -DE/DX   Delta X   Delta X   Delta X     New X
                                 (Linear)    (Quad)   (Total)
    R1        2.20147  -0.00965  -0.00865  -0.00000  -0.00865   2.19282
    R2        2.20147  -0.00965  -0.00865   0.00000  -0.00865   2.19282
    A1        3.14159  -0.00000   0.00000  -0.00000   0.00000   3.14159
    A2        3.14159  -0.00000   0.00000  -0.00000   0.00000   3.14159
         Item               Value     Threshold  Converged?
 Maximum Force            0.009654     0.000450     NO 
 RMS     Force            0.006827     0.000300     NO 
 Maximum Displacement     0.008651     0.001800     NO 
 RMS     Displacement     0.006117     0.001200     NO 
 Predicted change in Energy=-1.071128D-04
 GradGradGradGradGradGradGradGradGradGradGradGradGradGradGradGradGradGrad

                          Input orientation:                          
 ---------------------------------------------------------------------
 Center     Atomic      Atomic             Coordinates (Angstroms)
 Number     Number       Type             X           Y           Z
 ---------------------------------------------------------------------
      1          6           0       -1.058884   -0.444215   -0.000000
      2          8           0        0.101505   -0.444215    0.000000
      3          8           0       -2.219273   -0.444215   -0.000000
 ---------------------------------------------------------------------
                    Distance matrix (angstroms):
                    1          2          3
     1  C    0.000000
     2  O    1.160389   0.000000
     3  O    1.160389   2.320778   0.000000
 Stoichiometry    CO2
 Framework group  D*H[O(C),C*(O.O)]
 Deg. of freedom     1
 Full point group                 D*H     NOp   8
 Largest Abelian subgroup         D2H     NOp   8
 Largest concise Abelian subgroup C2      NOp   2
                         Standard orientation:                         
 ---------------------------------------------------------------------
 Center     Atomic      Atomic             Coordinates (Angstroms)
 Number     Number       Type             X           Y           Z
 ---------------------------------------------------------------------
      1          6           0        0.000000    0.000000    0.000000
      2          8           0        0.000000    0.000000    1.160389
      3          8           0        0.000000    0.000000   -1.160389
 ---------------------------------------------------------------------
 Rotational constants (GHZ):           0.0000000          11.7327006          11.7327006
 Standard basis: 6-311G(d,p) (5D, 7F)
 There are    17 symmetry adapted cartesian basis functions of AG  symmetry.
 There are     2 symmetry adapted cartesian basis functions of B1G symmetry.
 There are     5 symmetry adapted cartesian basis functions of B2G symmetry.
 There are     5 symmetry adapted cartesian basis functions of B3G symmetry.
 There are     1 symmetry adapted cartesian basis functions of AU  symmetry.
 There are    13 symmetry adapted cartesian basis functions of B1U symmetry.
 There are     7 symmetry adapted cartesian basis functions of B2U symmetry.
 There are     7 symmetry adapted cartesian basis functions of B3U symmetry.
 There are    15 symmetry adapted basis functions of AG  symmetry.
 There are     2 symmetry adapted basis functions of B1G symmetry.
 There are     5 symmetry adapted basis functions of B2G symmetry.
 There are     5 symmetry adapted basis functions of B3G symmetry.
 There are     1 symmetry adapted basis functions of AU  symmetry.
 There are    12 symmetry adapted basis functions of B1U symmetry.
 There are     7 symmetry adapted basis functions of B2U symmetry.
 There are     7 symmetry adapted basis functions of B3U symmetry.
    54 basis functions,    96 primitive gaussians,    57 cartesian basis functions
    11 alpha electrons       11 beta electrons
       nuclear repulsion energy        58.3723876689 Hartrees.
 NAtoms=    3 NActive=    3 NUniq=    2 SFac= 2.25D+00 NAtFMM=   60 NAOKFM=F Big=F
 Integral buffers will be    131072 words long.
 Raffenetti 2 integral format.
 Two-electron integral symmetry is turned on.
 One-electron integrals computed using PRISM.
 NBasis=    54 RedAO= T EigKep=  8.17D-03  NBF=    15     2     5     5     1    12     7     7
 NBsUse=    54 1.00D-06 EigRej= -1.00D+00 NBFU=    15     2     5     5     1    12     7     7
 Initial guess from the checkpoint file:  "/home/kimariyb/g16/scratch/Gau-171277.chk"
 B after Tr=    -0.000000    0.000000    0.000000
         Rot=    1.000000    0.000000    0.000000    0.000000 Ang=   0.00 deg.
 Initial guess orbital symmetries:
       Occupied  (SGU) (SGG) (SGG) (SGG) (SGU) (SGG) (SGU) (PIU)
                 (PIU) (PIG) (PIG)
       Virtual   (PIU) (PIU) (SGG) (SGU) (PIU) (PIU) (SGG) (SGU)
                 (SGG) (PIG) (PIG) (PIU) (PIU) (SGU) (DLTG) (DLTG)
                 (SGG) (PIG) (PIG) (SGU) (PIU) (PIU) (SGG) (DLTU)
                 (DLTU) (DLTG) (DLTG) (PIU) (PIU) (SGU) (SGU) (SGG)
                 (PIG) (PIG) (PIU) (PIU) (PIG) (PIG) (SGG) (SGU)
                 (SGG) (SGU) (SGG)
 Keep R1 ints in memory in symmetry-blocked form, NReq=9906823.
 Requested convergence on RMS density matrix=1.00D-08 within 128 cycles.
 Requested convergence on MAX density matrix=1.00D-06.
 Requested convergence on             energy=1.00D-06.
 No special actions if energy rises.
 SCF Done:  E(RB3LYP) =  -188.641138774     A.U. after    7 cycles
            NFock=  7  Conv=0.20D-08     -V/T= 2.0026
 Calling FoFJK, ICntrl=      2127 FMM=F ISym2X=1 I1Cent= 0 IOpClX= 0 NMat=1 NMatS=1 NMatT=0.
 ***** Axes restored to original set *****
 -------------------------------------------------------------------
 Center     Atomic                   Forces (Hartrees/Bohr)
 Number     Number              X              Y              Z
 -------------------------------------------------------------------
      1        6          -0.000000000    0.000000000   -0.000000000
      2        8           0.000098829   -0.000000000    0.000000000
      3        8          -0.000098829   -0.000000000    0.000000000
 -------------------------------------------------------------------
 Cartesian Forces:  Max     0.000098829 RMS     0.000046588

 GradGradGradGradGradGradGradGradGradGradGradGradGradGradGradGradGradGrad
 Berny optimization.
 Using GEDIIS/GDIIS optimizer.
 Internal  Forces:  Max     0.000098829 RMS     0.000069882
 Search for a local minimum.
 Step number   3 out of a maximum of   20
 All quantities printed in internal units (Hartrees-Bohrs-Radians)
 Mixed Optimization -- En-DIIS/RFO-DIIS
 Update second derivatives using D2CorX and points    1    2    3
 DE= -8.31D-05 DEPred=-1.07D-04 R= 7.76D-01
 TightC=F SS=  1.41D+00  RLast= 1.22D-02 DXNew= 8.4853D-01 3.6703D-02
 Trust test= 7.76D-01 RLast= 1.22D-02 DXMaxT set to 5.05D-01
 The second derivative matrix:
                          R1        R2        A1        A2
           R1           0.96475
           R2           0.16267   0.96475
           A1          -0.00000  -0.00000   0.03565
           A2          -0.00000  -0.00000   0.00000   0.03565
 ITU=  1  1  0
 Use linear search instead of GDIIS.
     Eigenvalues ---    0.03565   0.03565   0.80209   1.12742
 RFO step:  Lambda= 0.00000000D+00 EMin= 3.56487692D-02
 Quartic linear search produced a step of -0.00997.
 Iteration  1 RMS(Cart)=  0.00006101 RMS(Int)=  0.00000000
 Iteration  2 RMS(Cart)=  0.00000000 RMS(Int)=  0.00000000
 ClnCor:  largest displacement from symmetrization is 3.05D-13 for atom     1.
 Variable       Old X    -DE/DX   Delta X   Delta X   Delta X     New X
                                 (Linear)    (Quad)   (Total)
    R1        2.19282   0.00010   0.00009  -0.00000   0.00009   2.19290
    R2        2.19282   0.00010   0.00009   0.00000   0.00009   2.19290
    A1        3.14159  -0.00000   0.00000  -0.00000   0.00000   3.14159
    A2        3.14159  -0.00000   0.00000  -0.00000   0.00000   3.14159
         Item               Value     Threshold  Converged?
 Maximum Force            0.000099     0.000450     YES
 RMS     Force            0.000070     0.000300     YES
 Maximum Displacement     0.000086     0.001800     YES
 RMS     Displacement     0.000061     0.001200     YES
 Predicted change in Energy=-8.661082D-09
 Optimization completed.
    -- Stationary point found.
                           ----------------------------
                           !   Optimized Parameters   !
                           ! (Angstroms and Degrees)  !
 --------------------------                            --------------------------
 ! Name  Definition              Value          Derivative Info.                !
 --------------------------------------------------------------------------------
 ! R1    R(1,2)                  1.1604         -DE/DX =    0.0001              !
 ! R2    R(1,3)                  1.1604         -DE/DX =    0.0001              !
 ! A1    L(2,1,3,-2,-1)        180.0            -DE/DX =    0.0                 !
 ! A2    L(2,1,3,-3,-2)        180.0            -DE/DX =    0.0                 !
 --------------------------------------------------------------------------------
 GradGradGradGradGradGradGradGradGradGradGradGradGradGradGradGradGradGrad

                          Input orientation:                          
 ---------------------------------------------------------------------
 Center     Atomic      Atomic             Coordinates (Angstroms)
 Number     Number       Type             X           Y           Z
 ---------------------------------------------------------------------
      1          6           0       -1.058884   -0.444215   -0.000000
      2          8           0        0.101505   -0.444215    0.000000
      3          8           0       -2.219273   -0.444215   -0.000000
 ---------------------------------------------------------------------
                    Distance matrix (angstroms):
                    1          2          3
     1  C    0.000000
     2  O    1.160389   0.000000
     3  O    1.160389   2.320778   0.000000
 Stoichiometry    CO2
 Framework group  D*H[O(C),C*(O.O)]
 Deg. of freedom     1
 Full point group                 D*H     NOp   8
 Largest Abelian subgroup         D2H     NOp   8
 Largest concise Abelian subgroup C2      NOp   2
                         Standard orientation:                         
 ---------------------------------------------------------------------
 Center     Atomic      Atomic             Coordinates (Angstroms)
 Number     Number       Type             X           Y           Z
 ---------------------------------------------------------------------
      1          6           0        0.000000    0.000000    0.000000
      2          8           0        0.000000    0.000000    1.160389
      3          8           0        0.000000    0.000000   -1.160389
 ---------------------------------------------------------------------
 Rotational constants (GHZ):           0.0000000          11.7327006          11.7327006

 **********************************************************************

            Population analysis using the SCF density.

 **********************************************************************

 Orbital symmetries:
       Occupied  (SGG) (SGU) (SGG) (SGG) (SGU) (SGG) (SGU) (PIU)
                 (PIU) (PIG) (PIG)
       Virtual   (PIU) (PIU) (SGG) (SGU) (PIU) (PIU) (SGG) (SGU)
                 (SGG) (PIG) (PIG) (PIU) (PIU) (SGU) (DLTG) (DLTG)
                 (SGG) (PIG) (PIG) (SGU) (PIU) (PIU) (SGG) (DLTU)
                 (DLTU) (DLTG) (DLTG) (PIU) (PIU) (SGU) (SGU) (SGG)
                 (PIG) (PIG) (PIU) (PIU) (PIG) (PIG) (SGG) (SGU)
                 (SGG) (SGU) (SGG)
 The electronic state is 1-SGG.
 Alpha  occ. eigenvalues --  -19.20311 -19.20311 -10.36032  -1.16825  -1.12904
 Alpha  occ. eigenvalues --   -0.56614  -0.52440  -0.52199  -0.52199  -0.37686
 Alpha  occ. eigenvalues --   -0.37686
 Alpha virt. eigenvalues --    0.02953   0.02953   0.06539   0.30325   0.35070
 Alpha virt. eigenvalues --    0.35070   0.49030   0.63690   0.69096   0.74700
 Alpha virt. eigenvalues --    0.74700   0.92383   0.92383   1.01090   1.18567
 Alpha virt. eigenvalues --    1.18567   1.25613   1.38365   1.38365   1.54350
 Alpha virt. eigenvalues --    2.43373   2.43373   2.61453   2.73542   2.73542
 Alpha virt. eigenvalues --    2.84583   2.84583   3.05680   3.05680   3.13341
 Alpha virt. eigenvalues --    3.55719   3.59158   3.61418   3.61418   4.82653
 Alpha virt. eigenvalues --    4.82653   4.90947   4.90947   5.43016   5.59395
 Alpha virt. eigenvalues --   24.35209  49.81179  50.03077
          Condensed to atoms (all electrons):
               1          2          3
     1  C    4.209486   0.646902   0.646902
     2  O    0.646902   7.653151  -0.051699
     3  O    0.646902  -0.051699   7.653151
 Mulliken charges:
               1
     1  C    0.496709
     2  O   -0.248355
     3  O   -0.248355
 Sum of Mulliken charges =  -0.00000
 Mulliken charges with hydrogens summed into heavy atoms:
               1
     1  C    0.496709
     2  O   -0.248355
     3  O   -0.248355
 Electronic spatial extent (au):  <R**2>=            112.8996
 Charge=             -0.0000 electrons
 Dipole moment (field-independent basis, Debye):
    X=             -0.0000    Y=             -0.0000    Z=              0.0000  Tot=              0.0000
 Quadrupole moment (field-independent basis, Debye-Ang):
   XX=            -14.5656   YY=            -14.5656   ZZ=            -19.2422
   XY=              0.0000   XZ=              0.0000   YZ=              0.0000
 Traceless Quadrupole moment (field-independent basis, Debye-Ang):
   XX=              1.5589   YY=              1.5589   ZZ=             -3.1177
   XY=              0.0000   XZ=              0.0000   YZ=              0.0000
 Octapole moment (field-independent basis, Debye-Ang**2):
  XXX=             -0.0000  YYY=              0.0000  ZZZ=             -0.0000  XYY=             -0.0000
  XXY=              0.0000  XXZ=             -0.0000  XZZ=             -0.0000  YZZ=              0.0000
  YYZ=             -0.0000  XYZ=             -0.0000
 Hexadecapole moment (field-independent basis, Debye-Ang**3):
 XXXX=            -10.8948 YYYY=            -10.8948 ZZZZ=           -101.5366 XXXY=              0.0000
 XXXZ=              0.0000 YYYX=              0.0000 YYYZ=              0.0000 ZZZX=              0.0000
 ZZZY=              0.0000 XXYY=             -3.6316 XXZZ=            -18.1315 YYZZ=            -18.1315
 XXYZ=              0.0000 YYXZ=              0.0000 ZZXY=              0.0000
 N-N= 5.837238766889D+01 E-N=-5.611491792831D+02  KE= 1.881523744966D+02
 Symmetry AG   KE= 1.013662882763D+02
 Symmetry B1G  KE= 1.160713245519D-33
 Symmetry B2G  KE= 4.988047344954D+00
 Symmetry B3G  KE= 4.988047344954D+00
 Symmetry AU   KE= 1.368969120194D-34
 Symmetry B1U  KE= 6.947451829280D+01
 Symmetry B2U  KE= 3.667736618761D+00
 Symmetry B3U  KE= 3.667736618761D+00
 1\1\GINC-LOCALHOST\FOpt\RB3LYP\6-311G(d,p)\C1O2\KIMARIYB\23-Jul-2023\0
 \\# b3lyp/6-311g** opt freq\\Title Card Required\\0,1\C,-1.05888422,-0
 .44421487,0.\O,0.1015048904,-0.44421487,0.\O,-2.2192733304,-0.44421487
 ,0.\\Version=ES64L-G16RevA.03\State=1-SGG\HF=-188.6411388\RMSD=2.029e-
 09\RMSF=4.659e-05\Dipole=0.,0.,0.\Quadrupole=-2.3179535,1.1589767,1.15
 89767,0.,0.,0.\PG=D*H [O(C1),C*(O1.O1)]\\@


 ... IT IS NO ONE DREAME THAT
     CAN PLEASE THESE ALL ...

                -- BEN JONSON
 Job cpu time:       0 days  0 hours  0 minutes 22.6 seconds.
 Elapsed time:       0 days  0 hours  0 minutes  2.4 seconds.
 File lengths (MBytes):  RWF=      6 Int=      0 D2E=      0 Chk=      1 Scr=      1
 Normal termination of Gaussian 16 at Sun Jul 23 10:34:24 2023.
 Link1:  Proceeding to internal job step number  2.
 ----------------------------------------------------------------------
 #N Geom=AllCheck Guess=TCheck SCRF=Check GenChk RB3LYP/6-311G(d,p) Fre
 q
 ----------------------------------------------------------------------
 1/10=4,29=7,30=1,38=1,40=1/1,3;
 2/12=2,40=1/2;
 3/5=4,6=6,7=101,11=2,14=-4,25=1,30=1,70=2,71=2,74=-5,116=1,140=1/1,2,3;
 4/5=101/1;
 5/5=2,38=6,98=1/2;
 8/6=4,10=90,11=11/1;
 11/6=1,8=1,9=11,15=111,16=1/1,2,10;
 10/6=1/2;
 6/7=2,8=2,9=2,10=2,28=1/1;
 7/8=1,10=1,25=1/1,2,3,16;
 1/10=4,30=1/3;
 99//99;
 Structure from the checkpoint file:  "/home/kimariyb/g16/scratch/Gau-171277.chk"
 -------------------
 Title Card Required
 -------------------
 Charge =  0 Multiplicity = 1
 Redundant internal coordinates found in file.  (old form).
 C,0,-1.05888422,-0.44421487,0.
 O,0,0.1015048904,-0.44421487,0.
 O,0,-2.2192733304,-0.44421487,0.
 Recover connectivity data from disk.

 GradGradGradGradGradGradGradGradGradGradGradGradGradGradGradGradGradGrad
 Berny optimization.
 Initialization pass.
                           ----------------------------
                           !    Initial Parameters    !
                           ! (Angstroms and Degrees)  !
 --------------------------                            --------------------------
 ! Name  Definition              Value          Derivative Info.                !
 --------------------------------------------------------------------------------
 ! R1    R(1,2)                  1.1604         calculate D2E/DX2 analytically  !
 ! R2    R(1,3)                  1.1604         calculate D2E/DX2 analytically  !
 ! A1    L(2,1,3,-2,-1)        180.0            calculate D2E/DX2 analytically  !
 ! A2    L(2,1,3,-3,-2)        180.0            calculate D2E/DX2 analytically  !
 --------------------------------------------------------------------------------
 Trust Radius=3.00D-01 FncErr=1.00D-07 GrdErr=1.00D-07 EigMax=2.50D+02 EigMin=1.00D-04
 Number of steps in this run=      2 maximum allowed number of steps=      2.
 GradGradGradGradGradGradGradGradGradGradGradGradGradGradGradGradGradGrad

                          Input orientation:                          
 ---------------------------------------------------------------------
 Center     Atomic      Atomic             Coordinates (Angstroms)
 Number     Number       Type             X           Y           Z
 ---------------------------------------------------------------------
      1          6           0       -1.058884   -0.444215   -0.000000
      2          8           0        0.101505   -0.444215    0.000000
      3          8           0       -2.219273   -0.444215   -0.000000
 ---------------------------------------------------------------------
                    Distance matrix (angstroms):
                    1          2          3
     1  C    0.000000
     2  O    1.160389   0.000000
     3  O    1.160389   2.320778   0.000000
 Stoichiometry    CO2
 Framework group  D*H[O(C),C*(O.O)]
 Deg. of freedom     1
 Full point group                 D*H     NOp   8
 Largest Abelian subgroup         D2H     NOp   8
 Largest concise Abelian subgroup C2      NOp   2
                         Standard orientation:                         
 ---------------------------------------------------------------------
 Center     Atomic      Atomic             Coordinates (Angstroms)
 Number     Number       Type             X           Y           Z
 ---------------------------------------------------------------------
      1          6           0        0.000000    0.000000    0.000000
      2          8           0        0.000000    0.000000    1.160389
      3          8           0        0.000000    0.000000   -1.160389
 ---------------------------------------------------------------------
 Rotational constants (GHZ):           0.0000000          11.7327006          11.7327006
 Standard basis: 6-311G(d,p) (5D, 7F)
 There are    17 symmetry adapted cartesian basis functions of AG  symmetry.
 There are     2 symmetry adapted cartesian basis functions of B1G symmetry.
 There are     5 symmetry adapted cartesian basis functions of B2G symmetry.
 There are     5 symmetry adapted cartesian basis functions of B3G symmetry.
 There are     1 symmetry adapted cartesian basis functions of AU  symmetry.
 There are    13 symmetry adapted cartesian basis functions of B1U symmetry.
 There are     7 symmetry adapted cartesian basis functions of B2U symmetry.
 There are     7 symmetry adapted cartesian basis functions of B3U symmetry.
 There are    15 symmetry adapted basis functions of AG  symmetry.
 There are     2 symmetry adapted basis functions of B1G symmetry.
 There are     5 symmetry adapted basis functions of B2G symmetry.
 There are     5 symmetry adapted basis functions of B3G symmetry.
 There are     1 symmetry adapted basis functions of AU  symmetry.
 There are    12 symmetry adapted basis functions of B1U symmetry.
 There are     7 symmetry adapted basis functions of B2U symmetry.
 There are     7 symmetry adapted basis functions of B3U symmetry.
    54 basis functions,    96 primitive gaussians,    57 cartesian basis functions
    11 alpha electrons       11 beta electrons
       nuclear repulsion energy        58.3723876689 Hartrees.
 NAtoms=    3 NActive=    3 NUniq=    2 SFac= 2.25D+00 NAtFMM=   60 NAOKFM=F Big=F
 Integral buffers will be    131072 words long.
 Raffenetti 2 integral format.
 Two-electron integral symmetry is turned on.
 One-electron integrals computed using PRISM.
 NBasis=    54 RedAO= T EigKep=  8.17D-03  NBF=    15     2     5     5     1    12     7     7
 NBsUse=    54 1.00D-06 EigRej= -1.00D+00 NBFU=    15     2     5     5     1    12     7     7
 Initial guess from the checkpoint file:  "/home/kimariyb/g16/scratch/Gau-171277.chk"
 B after Tr=     0.000000    0.000000    0.000000
         Rot=    1.000000    0.000000    0.000000    0.000000 Ang=   0.00 deg.
 Initial guess orbital symmetries:
       Occupied  (SGG) (SGU) (SGG) (SGG) (SGU) (SGG) (SGU) (PIU)
                 (PIU) (PIG) (PIG)
       Virtual   (PIU) (PIU) (SGG) (SGU) (PIU) (PIU) (SGG) (SGU)
                 (SGG) (PIG) (PIG) (PIU) (PIU) (SGU) (DLTG) (DLTG)
                 (SGG) (PIG) (PIG) (SGU) (PIU) (PIU) (SGG) (DLTU)
                 (DLTU) (DLTG) (DLTG) (PIU) (PIU) (SGU) (SGU) (SGG)
                 (PIG) (PIG) (PIU) (PIU) (PIG) (PIG) (SGG) (SGU)
                 (SGG) (SGU) (SGG)
 Keep R1 ints in memory in symmetry-blocked form, NReq=9906823.
 Requested convergence on RMS density matrix=1.00D-08 within 128 cycles.
 Requested convergence on MAX density matrix=1.00D-06.
 Requested convergence on             energy=1.00D-06.
 No special actions if energy rises.
 SCF Done:  E(RB3LYP) =  -188.641138774     A.U. after    1 cycles
            NFock=  1  Conv=0.44D-09     -V/T= 2.0026
 DoSCS=F DFT=T ScalE2(SS,OS)=  1.000000  1.000000
 Range of M.O.s used for correlation:     1    54
 NBasis=    54 NAE=    11 NBE=    11 NFC=     0 NFV=     0
 NROrb=     54 NOA=    11 NOB=    11 NVA=    43 NVB=    43
 Symmetrizing basis deriv contribution to polar:
 IMax=3 JMax=2 DiffMx= 0.00D+00
 G2DrvN: will do     4 centers at a time, making    1 passes.
 Calling FoFCou, ICntrl=  3107 FMM=F I1Cent=   0 AccDes= 0.00D+00.
 End of G2Drv F.D. properties file   721 does not exist.
 End of G2Drv F.D. properties file   722 does not exist.
 End of G2Drv F.D. properties file   788 does not exist.
          IDoAtm=111
          Differentiating once with respect to electric field.
                with respect to dipole field.
          Differentiating once with respect to nuclear coordinates.
 Keep R1 ints in memory in symmetry-blocked form, NReq=9874673.
          There are     9 degrees of freedom in the 1st order CPHF.  IDoFFX=4 NUNeed=     9.
      9 vectors produced by pass  0 Test12= 5.26D-15 1.11D-08 XBig12= 2.50D+01 3.35D+00.
 AX will form     9 AO Fock derivatives at one time.
      9 vectors produced by pass  1 Test12= 5.26D-15 1.11D-08 XBig12= 1.01D+01 1.46D+00.
      9 vectors produced by pass  2 Test12= 5.26D-15 1.11D-08 XBig12= 3.61D-02 6.85D-02.
      9 vectors produced by pass  3 Test12= 5.26D-15 1.11D-08 XBig12= 1.58D-04 4.54D-03.
      9 vectors produced by pass  4 Test12= 5.26D-15 1.11D-08 XBig12= 3.69D-07 1.90D-04.
      7 vectors produced by pass  5 Test12= 5.26D-15 1.11D-08 XBig12= 1.83D-09 1.78D-05.
      2 vectors produced by pass  6 Test12= 5.26D-15 1.11D-08 XBig12= 2.90D-11 2.64D-06.
      1 vectors produced by pass  7 Test12= 5.26D-15 1.11D-08 XBig12= 1.02D-13 9.56D-08.
 InvSVY:  IOpt=1 It=  1 EMax= 1.69D-16
 Solved reduced A of dimension    55 with     9 vectors.
 Isotropic polarizability for W=    0.000000       12.60 Bohr**3.
 End of Minotr F.D. properties file   721 does not exist.
 End of Minotr F.D. properties file   722 does not exist.
 End of Minotr F.D. properties file   788 does not exist.

 **********************************************************************

            Population analysis using the SCF density.

 **********************************************************************

 Orbital symmetries:
       Occupied  (SGG) (SGU) (SGG) (SGG) (SGU) (SGG) (SGU) (PIU)
                 (PIU) (PIG) (PIG)
       Virtual   (PIU) (PIU) (SGG) (SGU) (PIU) (PIU) (SGG) (SGU)
                 (SGG) (PIG) (PIG) (PIU) (PIU) (SGU) (DLTG) (DLTG)
                 (SGG) (PIG) (PIG) (SGU) (PIU) (PIU) (SGG) (DLTU)
                 (DLTU) (DLTG) (DLTG) (PIU) (PIU) (SGU) (SGU) (SGG)
                 (PIG) (PIG) (PIU) (PIU) (PIG) (PIG) (SGG) (SGU)
                 (SGG) (SGU) (SGG)
 The electronic state is 1-SGG.
 Alpha  occ. eigenvalues --  -19.20311 -19.20311 -10.36032  -1.16825  -1.12904
 Alpha  occ. eigenvalues --   -0.56614  -0.52440  -0.52199  -0.52199  -0.37686
 Alpha  occ. eigenvalues --   -0.37686
 Alpha virt. eigenvalues --    0.02953   0.02953   0.06539   0.30325   0.35070
 Alpha virt. eigenvalues --    0.35070   0.49030   0.63690   0.69096   0.74700
 Alpha virt. eigenvalues --    0.74700   0.92383   0.92383   1.01090   1.18567
 Alpha virt. eigenvalues --    1.18567   1.25613   1.38365   1.38365   1.54350
 Alpha virt. eigenvalues --    2.43373   2.43373   2.61453   2.73542   2.73542
 Alpha virt. eigenvalues --    2.84583   2.84583   3.05680   3.05680   3.13341
 Alpha virt. eigenvalues --    3.55719   3.59158   3.61418   3.61418   4.82653
 Alpha virt. eigenvalues --    4.82653   4.90947   4.90947   5.43016   5.59395
 Alpha virt. eigenvalues --   24.35209  49.81179  50.03077
          Condensed to atoms (all electrons):
               1          2          3
     1  C    4.209486   0.646902   0.646902
     2  O    0.646902   7.653151  -0.051699
     3  O    0.646902  -0.051699   7.653151
 Mulliken charges:
               1
     1  C    0.496709
     2  O   -0.248355
     3  O   -0.248355
 Sum of Mulliken charges =  -0.00000
 Mulliken charges with hydrogens summed into heavy atoms:
               1
     1  C    0.496709
     2  O   -0.248355
     3  O   -0.248355
 APT charges:
               1
     1  C    1.145732
     2  O   -0.572866
     3  O   -0.572866
 Sum of APT charges =   0.00000
 APT charges with hydrogens summed into heavy atoms:
               1
     1  C    1.145732
     2  O   -0.572866
     3  O   -0.572866
 Electronic spatial extent (au):  <R**2>=            112.8996
 Charge=              0.0000 electrons
 Dipole moment (field-independent basis, Debye):
    X=             -0.0000    Y=              0.0000    Z=             -0.0000  Tot=              0.0000
 Quadrupole moment (field-independent basis, Debye-Ang):
   XX=            -14.5656   YY=            -14.5656   ZZ=            -19.2422
   XY=              0.0000   XZ=              0.0000   YZ=              0.0000
 Traceless Quadrupole moment (field-independent basis, Debye-Ang):
   XX=              1.5589   YY=              1.5589   ZZ=             -3.1177
   XY=              0.0000   XZ=              0.0000   YZ=              0.0000
 Octapole moment (field-independent basis, Debye-Ang**2):
  XXX=             -0.0000  YYY=             -0.0000  ZZZ=             -0.0000  XYY=             -0.0000
  XXY=              0.0000  XXZ=              0.0000  XZZ=             -0.0000  YZZ=             -0.0000
  YYZ=             -0.0000  XYZ=             -0.0000
 Hexadecapole moment (field-independent basis, Debye-Ang**3):
 XXXX=            -10.8948 YYYY=            -10.8948 ZZZZ=           -101.5366 XXXY=              0.0000
 XXXZ=              0.0000 YYYX=              0.0000 YYYZ=              0.0000 ZZZX=              0.0000
 ZZZY=              0.0000 XXYY=             -3.6316 XXZZ=            -18.1315 YYZZ=            -18.1315
 XXYZ=              0.0000 YYXZ=              0.0000 ZZXY=              0.0000
 N-N= 5.837238766889D+01 E-N=-5.611491797801D+02  KE= 1.881523747880D+02
 Symmetry AG   KE= 1.013662883368D+02
 Symmetry B1G  KE= 1.160713235271D-33
 Symmetry B2G  KE= 4.988047382318D+00
 Symmetry B3G  KE= 4.988047382318D+00
 Symmetry AU   KE= 1.368969062415D-34
 Symmetry B1U  KE= 6.947451835902D+01
 Symmetry B2U  KE= 3.667736663770D+00
 Symmetry B3U  KE= 3.667736663770D+00
  Exact polarizability:   7.740   0.000   7.740  -0.000   0.000  22.319
 Approx polarizability:   9.618  -0.000   9.618  -0.000  -0.000  45.276
 Calling FoFJK, ICntrl=    100127 FMM=F ISym2X=1 I1Cent= 0 IOpClX= 0 NMat=1 NMatS=1 NMatT=0.
 Full mass-weighted force constant matrix:
 Low frequencies ---   -8.4814   -8.4814    0.0012    0.0017    0.0017  666.3653
 Low frequencies ---  666.3653 1375.7396 2436.3193
 Diagonal vibrational polarizability:
        1.9877431       1.9877431       2.8054956
 Harmonic frequencies (cm**-1), IR intensities (KM/Mole), Raman scattering
 activities (A**4/AMU), depolarization ratios for plane and unpolarized
 incident light, reduced masses (AMU), force constants (mDyne/A),
 and normal coordinates:
                      1                      2                      3
                     PIU                    PIU                    SGG
 Frequencies --    666.3653               666.3653              1375.7396
 Red. masses --     12.8774                12.8774                15.9949
 Frc consts  --      3.3690                 3.3690                17.8363
 IR Inten    --     32.7983                32.7983                 0.0000
  Atom  AN      X      Y      Z        X      Y      Z        X      Y      Z
     1   6     0.88   0.00  -0.00    -0.00   0.88  -0.00     0.00  -0.00   0.00
     2   8    -0.33  -0.00  -0.00     0.00  -0.33   0.00    -0.00   0.00   0.71
     3   8    -0.33  -0.00   0.00     0.00  -0.33  -0.00    -0.00   0.00  -0.71
                      4
                     SGU
 Frequencies --   2436.3193
 Red. masses --     12.8774
 Frc consts  --     45.0345
 IR Inten    --    618.7923
  Atom  AN      X      Y      Z
     1   6     0.00   0.00   0.88
     2   8    -0.00  -0.00  -0.33
     3   8    -0.00  -0.00  -0.33

 -------------------
 - Thermochemistry -
 -------------------
 Temperature   298.150 Kelvin.  Pressure   1.00000 Atm.
 Atom     1 has atomic number  6 and mass  12.00000
 Atom     2 has atomic number  8 and mass  15.99491
 Atom     3 has atomic number  8 and mass  15.99491
 Molecular mass:    43.98983 amu.
 Principal axes and moments of inertia in atomic units:
                           1         2         3
     Eigenvalues --     0.00000 153.82147 153.82147
           X           -0.00000   1.00000  -0.00000
           Y            0.00000   0.00000   1.00000
           Z            1.00000   0.00000  -0.00000
 This molecule is a prolate symmetric top.
 Rotational symmetry number  2.
 Rotational temperature (Kelvin)      0.56308
 Rotational constant (GHZ):          11.732701
 Zero-point vibrational energy      30772.7 (Joules/Mol)
                                    7.35485 (Kcal/Mol)
 Vibrational temperatures:    958.75   958.75  1979.38  3505.32
          (Kelvin)
 
 Zero-point correction=                           0.011721 (Hartree/Particle)
 Thermal correction to Energy=                    0.014343
 Thermal correction to Enthalpy=                  0.015288
 Thermal correction to Gibbs Free Energy=        -0.008973
 Sum of electronic and zero-point Energies=           -188.629418
 Sum of electronic and thermal Energies=              -188.626795
 Sum of electronic and thermal Enthalpies=            -188.625851
 Sum of electronic and thermal Free Energies=         -188.650112
 
                     E (Thermal)             CV                S
                      KCal/Mol        Cal/Mol-Kelvin    Cal/Mol-Kelvin
 Total                    9.001              6.875             51.061
 Electronic               0.000              0.000              0.000
 Translational            0.889              2.981             37.270
 Rotational               0.592              1.987             13.073
 Vibrational              7.519              1.907              0.717
                       Q            Log10(Q)             Ln(Q)
 Total Bot       0.134067D+05          4.127323          9.503512
 Total V=0       0.329961D+10          9.518462         21.917069
 Vib (Bot)       0.441577D-05         -5.354994        -12.330329
 Vib (V=0)       0.108679D+01          0.036146          0.083229
 Electronic      0.100000D+01          0.000000          0.000000
 Translational   0.114679D+08          7.059482         16.255059
 Rotational      0.264749D+03          2.422834          5.578782
 ***** Axes restored to original set *****
 -------------------------------------------------------------------
 Center     Atomic                   Forces (Hartrees/Bohr)
 Number     Number              X              Y              Z
 -------------------------------------------------------------------
      1        6          -0.000000000    0.000000000   -0.000000000
      2        8           0.000098824    0.000000000    0.000000000
      3        8          -0.000098824   -0.000000000    0.000000000
 -------------------------------------------------------------------
 Cartesian Forces:  Max     0.000098824 RMS     0.000046586
 FormGI is forming the generalized inverse of G from B-inverse, IUseBI=4.

 GradGradGradGradGradGradGradGradGradGradGradGradGradGradGradGradGradGrad
 Berny optimization.
 Internal  Forces:  Max     0.000098824 RMS     0.000069879
 Search for a local minimum.
 Step number   1 out of a maximum of    2
 All quantities printed in internal units (Hartrees-Bohrs-Radians)
 Second derivative matrix not updated -- analytic derivatives used.
 The second derivative matrix:
                          R1        R2        A1        A2
           R1           1.06287
           R2           0.08277   1.06287
           A1           0.00000  -0.00000   0.17639
           A2           0.00000  -0.00000   0.00000   0.17639
 ITU=  0
     Eigenvalues ---    0.17639   0.17639   0.98010   1.14563
 Angle between quadratic step and forces=   0.00 degrees.
 Linear search not attempted -- first point.
 Iteration  1 RMS(Cart)=  0.00006100 RMS(Int)=  0.00000000
 Iteration  2 RMS(Cart)=  0.00000000 RMS(Int)=  0.00000000
 ClnCor:  largest displacement from symmetrization is 4.81D-14 for atom     1.
 Variable       Old X    -DE/DX   Delta X   Delta X   Delta X     New X
                                 (Linear)    (Quad)   (Total)
    R1        2.19282   0.00010   0.00000   0.00009   0.00009   2.19290
    R2        2.19282   0.00010   0.00000   0.00009   0.00009   2.19290
    A1        3.14159  -0.00000   0.00000  -0.00000   0.00000   3.14159
    A2        3.14159  -0.00000   0.00000  -0.00000   0.00000   3.14159
         Item               Value     Threshold  Converged?
 Maximum Force            0.000099     0.000450     YES
 RMS     Force            0.000070     0.000300     YES
 Maximum Displacement     0.000086     0.001800     YES
 RMS     Displacement     0.000061     0.001200     YES
 Predicted change in Energy=-8.524620D-09
 Optimization completed.
    -- Stationary point found.
                           ----------------------------
                           !   Optimized Parameters   !
                           ! (Angstroms and Degrees)  !
 --------------------------                            --------------------------
 ! Name  Definition              Value          Derivative Info.                !
 --------------------------------------------------------------------------------
 ! R1    R(1,2)                  1.1604         -DE/DX =    0.0001              !
 ! R2    R(1,3)                  1.1604         -DE/DX =    0.0001              !
 ! A1    L(2,1,3,-2,-1)        180.0            -DE/DX =    0.0                 !
 ! A2    L(2,1,3,-3,-2)        180.0            -DE/DX =    0.0                 !
 --------------------------------------------------------------------------------
 GradGradGradGradGradGradGradGradGradGradGradGradGradGradGradGradGradGrad

 Dipole is zero, so no output in dipole orientation.

 ----------------------------------------------------------------------

 Electric dipole moment (input orientation):
 (Debye = 10**-18 statcoulomb cm , SI units = C m)
                  (au)            (Debye)         (10**-30 SI)
   Tot        0.000000D+00      0.000000D+00      0.000000D+00
   x          0.000000D+00      0.000000D+00      0.000000D+00
   y          0.000000D+00      0.000000D+00      0.000000D+00
   z          0.000000D+00      0.000000D+00      0.000000D+00

 Dipole polarizability, Alpha (input orientation).
 (esu units = cm**3 , SI units = C**2 m**2 J**-1)
 Alpha(0;0):
               (au)            (10**-24 esu)      (10**-40 SI)
   iso        0.125999D+02      0.186711D+01      0.207744D+01
   aniso      0.145786D+02      0.216033D+01      0.240369D+01
   xx         0.223190D+02      0.330733D+01      0.367990D+01
   yx         0.000000D+00      0.000000D+00      0.000000D+00
   yy         0.774033D+01      0.114700D+01      0.127621D+01
   zx         0.000000D+00      0.000000D+00      0.000000D+00
   zy         0.000000D+00      0.000000D+00      0.000000D+00
   zz         0.774033D+01      0.114700D+01      0.127621D+01

 ----------------------------------------------------------------------
 1\1\GINC-LOCALHOST\Freq\RB3LYP\6-311G(d,p)\C1O2\KIMARIYB\23-Jul-2023\0
 \\#N Geom=AllCheck Guess=TCheck SCRF=Check GenChk RB3LYP/6-311G(d,p) F
 req\\Title Card Required\\0,1\C,-1.05888422,-0.44421487,0.\O,0.1015048
 904,-0.44421487,0.\O,-2.2192733304,-0.44421487,0.\\Version=ES64L-G16Re
 vA.03\State=1-SGG\HF=-188.6411388\RMSD=4.370e-10\RMSF=4.659e-05\ZeroPo
 int=0.0117207\Thermal=0.0143433\Dipole=0.,0.,0.\DipoleDeriv=2.3535165,
 0.,0.,0.,0.5418396,0.,0.,0.,0.5418396,-1.1767583,0.,0.,0.,-0.2709198,0
 .,0.,0.,-0.2709198,-1.1767583,0.,0.,0.,-0.2709198,0.,0.,0.,-0.2709198\
 Polar=22.3189847,0.,7.7403348,0.,0.,7.7403348\Quadrupole=-2.3179538,1.
 1589769,1.1589769,0.,0.,0.\PG=D*H [O(C1),C*(O1.O1)]\NImag=0\\1.9602015
 9,0.,0.14664156,0.,0.,0.14664156,-0.98010079,0.,0.,1.06286732,0.,-0.07
 332078,0.,0.,0.03663862,0.,0.,-0.07332078,0.,0.,0.03663862,-0.98010079
 ,0.,0.,-0.08276653,0.,0.,1.06286732,0.,-0.07332078,0.,0.,0.03668216,0.
 ,0.,0.03663862,0.,0.,-0.07332078,0.,0.,0.03668216,0.,0.,0.03663862\\0.
 ,0.,0.,-0.00009882,0.,0.,0.00009882,0.,0.\\\@


 IF YOU BELIEVE CERTAIN WORDS, YOU BELIEVE THEIR HIDDEN ARGUMENTS.
 WHEN YOU BELIEVE SOMETHING IS RIGHT OR WRONG, TRUE OR FALSE, 
 YOU BELIEVE THE ASSUMPTIONS IN THE WORDS WHICH EXPRESS THE ARGUMENTS.
 SUCH ASSUMPTIONS ARE OFTEN FULL OF HOLES, BUT REMAIN MOST PRECIOUS 
 TO THE CONVINCED.

                 -- THE OPEN-ENDED PROOF FROM THE PANOPLIA PROPHETICA
                    CHILDREN OF DUNE BY FRANK HERBERT
 Job cpu time:       0 days  0 hours  0 minutes 14.7 seconds.
 Elapsed time:       0 days  0 hours  0 minutes  1.5 seconds.
 File lengths (MBytes):  RWF=      6 Int=      0 D2E=      0 Chk=      1 Scr=      1
 Normal termination of Gaussian 16 at Sun Jul 23 10:34:26 2023.
