 Entering Gaussian System, Link 0=g16
 Initial command:
 /home/kimariyb/g16/l1.exe "/home/kimariyb/g16/scratch/Gau-171831.inp" -scrdir="/home/kimariyb/g16/scratch/"
 Default is to use a total of  10 processors:
                               10 via shared-memory
                                1 via Linda
 Entering Link 1 = /home/kimariyb/g16/l1.exe PID=    171832.
  
 Copyright (c) 1988,1990,1992,1993,1995,1998,2003,2009,2016,
            Gaussian, Inc.  All Rights Reserved.
  
 This is part of the Gaussian(R) 16 program.  It is based on
 the Gaussian(R) 09 system (copyright 2009, Gaussian, Inc.),
 the Gaussian(R) 03 system (copyright 2003, Gaussian, Inc.),
 the Gaussian(R) 98 system (copyright 1998, Gaussian, Inc.),
 the Gaussian(R) 94 system (copyright 1995, Gaussian, Inc.),
 the Gaussian 92(TM) system (copyright 1992, Gaussian, Inc.),
 the Gaussian 90(TM) system (copyright 1990, Gaussian, Inc.),
 the Gaussian 88(TM) system (copyright 1988, Gaussian, Inc.),
 the Gaussian 86(TM) system (copyright 1986, Carnegie Mellon
 University), and the Gaussian 82(TM) system (copyright 1983,
 Carnegie Mellon University). Gaussian is a federally registered
 trademark of Gaussian, Inc.
  
 This software contains proprietary and confidential information,
 including trade secrets, belonging to Gaussian, Inc.
  
 This software is provided under written license and may be
 used, copied, transmitted, or stored only in accord with that
 written license.
  
 The following legend is applicable only to US Government
 contracts under FAR:
  
                    RESTRICTED RIGHTS LEGEND
  
 Use, reproduction and disclosure by the US Government is
 subject to restrictions as set forth in subparagraphs (a)
 and (c) of the Commercial Computer Software - Restricted
 Rights clause in FAR 52.227-19.
  
 Gaussian, Inc.
 340 Quinnipiac St., Bldg. 40, Wallingford CT 06492
  
  
 ---------------------------------------------------------------
 Warning -- This program may not be used in any manner that
 competes with the business of Gaussian, Inc. or will provide
 assistance to any competitor of Gaussian, Inc.  The licensee
 of this program is prohibited from giving any competitor of
 Gaussian, Inc. access to this program.  By using this program,
 the user acknowledges that Gaussian, Inc. is engaged in the
 business of creating and licensing software in the field of
 computational chemistry and represents and warrants to the
 licensee that it is not a competitor of Gaussian, Inc. and that
 it will not use this program in any manner prohibited above.
 ---------------------------------------------------------------
  

 Cite this work as:
 Gaussian 16, Revision A.03,
 M. J. Frisch, G. W. Trucks, H. B. Schlegel, G. E. Scuseria, 
 M. A. Robb, J. R. Cheeseman, G. Scalmani, V. Barone, 
 G. A. Petersson, H. Nakatsuji, X. Li, M. Caricato, A. V. Marenich, 
 J. Bloino, B. G. Janesko, R. Gomperts, B. Mennucci, H. P. Hratchian, 
 J. V. Ortiz, A. F. Izmaylov, J. L. Sonnenberg, D. Williams-Young, 
 F. Ding, F. Lipparini, F. Egidi, J. Goings, B. Peng, A. Petrone, 
 T. Henderson, D. Ranasinghe, V. G. Zakrzewski, J. Gao, N. Rega, 
 G. Zheng, W. Liang, M. Hada, M. Ehara, K. Toyota, R. Fukuda, 
 J. Hasegawa, M. Ishida, T. Nakajima, Y. Honda, O. Kitao, H. Nakai, 
 T. Vreven, K. Throssell, J. A. Montgomery, Jr., J. E. Peralta, 
 F. Ogliaro, M. J. Bearpark, J. J. Heyd, E. N. Brothers, K. N. Kudin, 
 V. N. Staroverov, T. A. Keith, R. Kobayashi, J. Normand, 
 K. Raghavachari, A. P. Rendell, J. C. Burant, S. S. Iyengar, 
 J. Tomasi, M. Cossi, J. M. Millam, M. Klene, C. Adamo, R. Cammi, 
 J. W. Ochterski, R. L. Martin, K. Morokuma, O. Farkas, 
 J. B. Foresman, and D. J. Fox, Gaussian, Inc., Wallingford CT, 2016.
 
 ******************************************
 Gaussian 16:  ES64L-G16RevA.03 25-Dec-2016
                23-Jul-2023 
 ******************************************
 -------------------------
 # b3lyp/6-311g** opt freq
 -------------------------
 1/18=20,19=15,26=3,38=1/1,3;
 2/9=110,12=2,17=6,18=5,40=1/2;
 3/5=4,6=6,7=101,11=2,25=1,30=1,71=1,74=-5/1,2,3;
 4//1;
 5/5=2,38=5/2;
 6/7=2,8=2,9=2,10=2,28=1/1;
 7//1,2,3,16;
 1/18=20,19=15,26=3/3(2);
 2/9=110/2;
 99//99;
 2/9=110/2;
 3/5=4,6=6,7=101,11=2,25=1,30=1,71=1,74=-5/1,2,3;
 4/5=5,16=3,69=1/1;
 5/5=2,38=5/2;
 7//1,2,3,16;
 1/18=20,19=15,26=3/3(-5);
 2/9=110/2;
 6/7=2,8=2,9=2,10=2,19=2,28=1/1;
 99/9=1/99;
 -------------------
 Title Card Required
 -------------------
 Symbolic Z-matrix:
 Charge =  0 Multiplicity = 1
 C                    -2.07114  -0.46501  -0.02103 
 O                    -0.95574  -0.46501  -0.02103 
 

 GradGradGradGradGradGradGradGradGradGradGradGradGradGradGradGradGradGrad
 Berny optimization.
 Initialization pass.
                           ----------------------------
                           !    Initial Parameters    !
                           ! (Angstroms and Degrees)  !
 --------------------------                            --------------------------
 ! Name  Definition              Value          Derivative Info.                !
 --------------------------------------------------------------------------------
 ! R1    R(1,2)                  1.1154         estimate D2E/DX2                !
 --------------------------------------------------------------------------------
 Trust Radius=3.00D-01 FncErr=1.00D-07 GrdErr=1.00D-06 EigMax=2.50D+02 EigMin=1.00D-04
 Number of steps in this run=     20 maximum allowed number of steps=    100.
 GradGradGradGradGradGradGradGradGradGradGradGradGradGradGradGradGradGrad

                          Input orientation:                          
 ---------------------------------------------------------------------
 Center     Atomic      Atomic             Coordinates (Angstroms)
 Number     Number       Type             X           Y           Z
 ---------------------------------------------------------------------
      1          6           0       -2.071143   -0.465014   -0.021027
      2          8           0       -0.955743   -0.465014   -0.021027
 ---------------------------------------------------------------------
 Stoichiometry    CO
 Framework group  C*V[C*(CO)]
 Deg. of freedom     1
 Full point group                 C*V     NOp   4
 Largest Abelian subgroup         C2V     NOp   4
 Largest concise Abelian subgroup C1      NOp   1
                         Standard orientation:                         
 ---------------------------------------------------------------------
 Center     Atomic      Atomic             Coordinates (Angstroms)
 Number     Number       Type             X           Y           Z
 ---------------------------------------------------------------------
      1          6           0        0.000000    0.000000   -0.637371
      2          8           0        0.000000    0.000000    0.478029
 ---------------------------------------------------------------------
 Rotational constants (GHZ):           0.0000000          59.2477544          59.2477544
 Standard basis: 6-311G(d,p) (5D, 7F)
 There are    20 symmetry adapted cartesian basis functions of A1  symmetry.
 There are     2 symmetry adapted cartesian basis functions of A2  symmetry.
 There are     8 symmetry adapted cartesian basis functions of B1  symmetry.
 There are     8 symmetry adapted cartesian basis functions of B2  symmetry.
 There are    18 symmetry adapted basis functions of A1  symmetry.
 There are     2 symmetry adapted basis functions of A2  symmetry.
 There are     8 symmetry adapted basis functions of B1  symmetry.
 There are     8 symmetry adapted basis functions of B2  symmetry.
    36 basis functions,    64 primitive gaussians,    38 cartesian basis functions
     7 alpha electrons        7 beta electrons
       nuclear repulsion energy        22.7725534554 Hartrees.
 NAtoms=    2 NActive=    2 NUniq=    2 SFac= 1.00D+00 NAtFMM=   60 NAOKFM=F Big=F
 Integral buffers will be    131072 words long.
 Raffenetti 2 integral format.
 Two-electron integral symmetry is turned on.
 One-electron integrals computed using PRISM.
 NBasis=    36 RedAO= T EigKep=  1.33D-02  NBF=    18     2     8     8
 NBsUse=    36 1.00D-06 EigRej= -1.00D+00 NBFU=    18     2     8     8
 ExpMin= 1.46D-01 ExpMax= 8.59D+03 ExpMxC= 1.30D+03 IAcc=3 IRadAn=         5 AccDes= 0.00D+00
 Harris functional with IExCor=  402 and IRadAn=       5 diagonalized for initial guess.
 HarFok:  IExCor=  402 AccDes= 0.00D+00 IRadAn=         5 IDoV= 1 UseB2=F ITyADJ=14
 ICtDFT=  3500011 ScaDFX=  1.000000  1.000000  1.000000  1.000000
 FoFCou: FMM=F IPFlag=           0 FMFlag=      100000 FMFlg1=           0
         NFxFlg=           0 DoJE=T BraDBF=F KetDBF=T FulRan=T
         wScrn=  0.000000 ICntrl=       500 IOpCl=  0 I1Cent=   200000004 NGrid=           0
         NMat0=    1 NMatS0=      1 NMatT0=    0 NMatD0=    1 NMtDS0=    0 NMtDT0=    0
 Petite list used in FoFCou.
 Initial guess orbital symmetries:
       Occupied  (SG) (SG) (SG) (SG) (PI) (PI) (SG)
       Virtual   (PI) (PI) (SG) (PI) (PI) (SG) (SG) (SG) (PI) (PI)
                 (SG) (DLTA) (DLTA) (PI) (PI) (SG) (PI) (PI) (DLTA)
                 (DLTA) (SG) (PI) (PI) (SG) (PI) (PI) (SG) (SG)
                 (SG)
 The electronic state of the initial guess is 1-SG.
 Keep R1 ints in memory in symmetry-blocked form, NReq=8852945.
 Requested convergence on RMS density matrix=1.00D-08 within 128 cycles.
 Requested convergence on MAX density matrix=1.00D-06.
 Requested convergence on             energy=1.00D-06.
 No special actions if energy rises.
 Integral accuracy reduced to 1.0D-05 until final iterations.
 Initial convergence to 1.0D-05 achieved.  Increase integral accuracy.
 SCF Done:  E(RB3LYP) =  -113.345921230     A.U. after   11 cycles
            NFock= 11  Conv=0.15D-08     -V/T= 2.0022

 **********************************************************************

            Population analysis using the SCF density.

 **********************************************************************

 Orbital symmetries:
       Occupied  (SG) (SG) (SG) (SG) (PI) (PI) (SG)
       Virtual   (PI) (PI) (SG) (PI) (PI) (SG) (SG) (SG) (PI) (PI)
                 (SG) (DLTA) (DLTA) (PI) (PI) (SG) (PI) (PI) (DLTA)
                 (DLTA) (SG) (PI) (PI) (SG) (PI) (PI) (SG) (SG)
                 (SG)
 The electronic state is 1-SG.
 Alpha  occ. eigenvalues --  -19.22895 -10.28347  -1.17857  -0.57967  -0.48460
 Alpha  occ. eigenvalues --   -0.48460  -0.37963
 Alpha virt. eigenvalues --   -0.02456  -0.02456   0.21682   0.38795   0.38795
 Alpha virt. eigenvalues --    0.42624   0.65899   0.77039   0.79187   0.79187
 Alpha virt. eigenvalues --    1.25679   1.25774   1.25774   1.41764   1.41764
 Alpha virt. eigenvalues --    1.98854   2.52865   2.52865   2.77352   2.77352
 Alpha virt. eigenvalues --    2.90256   3.32594   3.32594   3.56292   4.77073
 Alpha virt. eigenvalues --    4.77073   5.45689  23.75511  49.82303
          Condensed to atoms (all electrons):
               1          2
     1  C    5.374500   0.552048
     2  O    0.552048   7.521404
 Mulliken charges:
               1
     1  C    0.073452
     2  O   -0.073452
 Sum of Mulliken charges =   0.00000
 Mulliken charges with hydrogens summed into heavy atoms:
               1
     1  C    0.073452
     2  O   -0.073452
 Electronic spatial extent (au):  <R**2>=             39.2854
 Charge=              0.0000 electrons
 Dipole moment (field-independent basis, Debye):
    X=              0.0000    Y=              0.0000    Z=              0.1621  Tot=              0.1621
 Quadrupole moment (field-independent basis, Debye-Ang):
   XX=            -10.0694   YY=            -10.0694   ZZ=            -12.2132
   XY=              0.0000   XZ=              0.0000   YZ=              0.0000
 Traceless Quadrupole moment (field-independent basis, Debye-Ang):
   XX=              0.7146   YY=              0.7146   ZZ=             -1.4293
   XY=              0.0000   XZ=              0.0000   YZ=              0.0000
 Octapole moment (field-independent basis, Debye-Ang**2):
  XXX=              0.0000  YYY=              0.0000  ZZZ=              6.1337  XYY=              0.0000
  XXY=              0.0000  XXZ=              1.2780  XZZ=              0.0000  YZZ=              0.0000
  YYZ=              1.2780  XYZ=              0.0000
 Hexadecapole moment (field-independent basis, Debye-Ang**3):
 XXXX=             -8.5911 YYYY=             -8.5911 ZZZZ=            -35.3548 XXXY=              0.0000
 XXXZ=              0.0000 YYYX=              0.0000 YYYZ=              0.0000 ZZZX=              0.0000
 ZZZY=              0.0000 XXYY=             -2.8637 XXZZ=             -6.8119 YYZZ=             -6.8119
 XXYZ=              0.0000 YYXZ=              0.0000 ZZXY=              0.0000
 N-N= 2.277255345541D+01 E-N=-3.120005680112D+02  KE= 1.131001626348D+02
 Symmetry A1   KE= 1.048295392920D+02
 Symmetry A2   KE=-8.279700700743D-52
 Symmetry B1   KE= 4.135311671358D+00
 Symmetry B2   KE= 4.135311671358D+00
 Calling FoFJK, ICntrl=      2127 FMM=F ISym2X=1 I1Cent= 0 IOpClX= 0 NMat=1 NMatS=1 NMatT=0.
 ***** Axes restored to original set *****
 -------------------------------------------------------------------
 Center     Atomic                   Forces (Hartrees/Bohr)
 Number     Number              X              Y              Z
 -------------------------------------------------------------------
      1        6          -0.029091122   -0.000000000   -0.000000000
      2        8           0.029091122   -0.000000000   -0.000000000
 -------------------------------------------------------------------
 Cartesian Forces:  Max     0.029091122 RMS     0.016795767

 GradGradGradGradGradGradGradGradGradGradGradGradGradGradGradGradGradGrad
 Berny optimization.
 FormGI is forming the generalized inverse of G from B-inverse, IUseBI=4.
 Internal  Forces:  Max     0.029091122 RMS     0.029091122
 Search for a local minimum.
 Step number   1 out of a maximum of   20
 All quantities printed in internal units (Hartrees-Bohrs-Radians)
 Mixed Optimization -- RFO/linear search
 Second derivative matrix not updated -- first step.
 The second derivative matrix:
                          R1
           R1           1.62060
 ITU=  0
     Eigenvalues ---    1.62060
 RFO step:  Lambda=-5.22041235D-04 EMin= 1.62060164D+00
 Linear search not attempted -- first point.
 Iteration  1 RMS(Cart)=  0.01268906 RMS(Int)=  0.00000000
 Iteration  2 RMS(Cart)=  0.00000000 RMS(Int)=  0.00000000
 ClnCor:  largest displacement from symmetrization is 0.00D+00 for atom     0.
 Variable       Old X    -DE/DX   Delta X   Delta X   Delta X     New X
                                 (Linear)    (Quad)   (Total)
    R1        2.10780   0.02909   0.00000   0.01795   0.01795   2.12575
         Item               Value     Threshold  Converged?
 Maximum Force            0.029091     0.000450     NO 
 RMS     Force            0.029091     0.000300     NO 
 Maximum Displacement     0.008973     0.001800     NO 
 RMS     Displacement     0.012689     0.001200     NO 
 Predicted change in Energy=-2.611047D-04
 GradGradGradGradGradGradGradGradGradGradGradGradGradGradGradGradGradGrad

                          Input orientation:                          
 ---------------------------------------------------------------------
 Center     Atomic      Atomic             Coordinates (Angstroms)
 Number     Number       Type             X           Y           Z
 ---------------------------------------------------------------------
      1          6           0       -2.075891   -0.465014   -0.021027
      2          8           0       -0.950995   -0.465014   -0.021027
 ---------------------------------------------------------------------
 Stoichiometry    CO
 Framework group  C*V[C*(CO)]
 Deg. of freedom     1
 Full point group                 C*V     NOp   4
 Largest Abelian subgroup         C2V     NOp   4
 Largest concise Abelian subgroup C1      NOp   1
                         Standard orientation:                         
 ---------------------------------------------------------------------
 Center     Atomic      Atomic             Coordinates (Angstroms)
 Number     Number       Type             X           Y           Z
 ---------------------------------------------------------------------
      1          6           0        0.000000    0.000000   -0.642798
      2          8           0        0.000000    0.000000    0.482098
 ---------------------------------------------------------------------
 Rotational constants (GHZ):           0.0000000          58.2516658          58.2516658
 Standard basis: 6-311G(d,p) (5D, 7F)
 There are    20 symmetry adapted cartesian basis functions of A1  symmetry.
 There are     2 symmetry adapted cartesian basis functions of A2  symmetry.
 There are     8 symmetry adapted cartesian basis functions of B1  symmetry.
 There are     8 symmetry adapted cartesian basis functions of B2  symmetry.
 There are    18 symmetry adapted basis functions of A1  symmetry.
 There are     2 symmetry adapted basis functions of A2  symmetry.
 There are     8 symmetry adapted basis functions of B1  symmetry.
 There are     8 symmetry adapted basis functions of B2  symmetry.
    36 basis functions,    64 primitive gaussians,    38 cartesian basis functions
     7 alpha electrons        7 beta electrons
       nuclear repulsion energy        22.5803130029 Hartrees.
 NAtoms=    2 NActive=    2 NUniq=    2 SFac= 1.00D+00 NAtFMM=   60 NAOKFM=F Big=F
 Integral buffers will be    131072 words long.
 Raffenetti 2 integral format.
 Two-electron integral symmetry is turned on.
 One-electron integrals computed using PRISM.
 NBasis=    36 RedAO= T EigKep=  1.37D-02  NBF=    18     2     8     8
 NBsUse=    36 1.00D-06 EigRej= -1.00D+00 NBFU=    18     2     8     8
 Initial guess from the checkpoint file:  "/home/kimariyb/g16/scratch/Gau-171832.chk"
 B after Tr=     0.000000    0.000000   -0.000000
         Rot=    1.000000    0.000000    0.000000    0.000000 Ang=   0.00 deg.
 Initial guess orbital symmetries:
       Occupied  (SG) (SG) (SG) (SG) (PI) (PI) (SG)
       Virtual   (PI) (PI) (SG) (PI) (PI) (SG) (SG) (SG) (PI) (PI)
                 (SG) (DLTA) (DLTA) (PI) (PI) (SG) (PI) (PI) (DLTA)
                 (DLTA) (SG) (PI) (PI) (SG) (PI) (PI) (SG) (SG)
                 (SG)
 Keep R1 ints in memory in symmetry-blocked form, NReq=8852945.
 Requested convergence on RMS density matrix=1.00D-08 within 128 cycles.
 Requested convergence on MAX density matrix=1.00D-06.
 Requested convergence on             energy=1.00D-06.
 No special actions if energy rises.
 SCF Done:  E(RB3LYP) =  -113.346224905     A.U. after    8 cycles
            NFock=  8  Conv=0.52D-09     -V/T= 2.0026
 Calling FoFJK, ICntrl=      2127 FMM=F ISym2X=1 I1Cent= 0 IOpClX= 0 NMat=1 NMatS=1 NMatT=0.
 ***** Axes restored to original set *****
 -------------------------------------------------------------------
 Center     Atomic                   Forces (Hartrees/Bohr)
 Number     Number              X              Y              Z
 -------------------------------------------------------------------
      1        6          -0.005018943   -0.000000000   -0.000000000
      2        8           0.005018943   -0.000000000   -0.000000000
 -------------------------------------------------------------------
 Cartesian Forces:  Max     0.005018943 RMS     0.002897688

 GradGradGradGradGradGradGradGradGradGradGradGradGradGradGradGradGradGrad
 Berny optimization.
 Using GEDIIS/GDIIS optimizer.
 Internal  Forces:  Max     0.005018943 RMS     0.005018943
 Search for a local minimum.
 Step number   2 out of a maximum of   20
 All quantities printed in internal units (Hartrees-Bohrs-Radians)
 Mixed Optimization -- RFO/linear search
 Update second derivatives using D2CorX and points    1    2
 DE= -3.04D-04 DEPred=-2.61D-04 R= 1.16D+00
 TightC=F SS=  1.41D+00  RLast= 1.79D-02 DXNew= 5.0454D-01 5.3835D-02
 Trust test= 1.16D+00 RLast= 1.79D-02 DXMaxT set to 3.00D-01
 The second derivative matrix:
                          R1
           R1           1.34144
 ITU=  1  0
 Use linear search instead of GDIIS.
     Eigenvalues ---    1.34144
 RFO step:  Lambda= 0.00000000D+00 EMin= 1.34143949D+00
 Quartic linear search produced a step of  0.21716.
 Iteration  1 RMS(Cart)=  0.00275552 RMS(Int)=  0.00000000
 Iteration  2 RMS(Cart)=  0.00000000 RMS(Int)=  0.00000000
 ClnCor:  largest displacement from symmetrization is 0.00D+00 for atom     0.
 Variable       Old X    -DE/DX   Delta X   Delta X   Delta X     New X
                                 (Linear)    (Quad)   (Total)
    R1        2.12575   0.00502   0.00390   0.00000   0.00390   2.12964
         Item               Value     Threshold  Converged?
 Maximum Force            0.005019     0.000450     NO 
 RMS     Force            0.005019     0.000300     NO 
 Maximum Displacement     0.001948     0.001800     NO 
 RMS     Displacement     0.002756     0.001200     NO 
 Predicted change in Energy=-9.372884D-06
 GradGradGradGradGradGradGradGradGradGradGradGradGradGradGradGradGradGrad

                          Input orientation:                          
 ---------------------------------------------------------------------
 Center     Atomic      Atomic             Coordinates (Angstroms)
 Number     Number       Type             X           Y           Z
 ---------------------------------------------------------------------
      1          6           0       -2.076922   -0.465014   -0.021027
      2          8           0       -0.949964   -0.465014   -0.021027
 ---------------------------------------------------------------------
 Stoichiometry    CO
 Framework group  C*V[C*(CO)]
 Deg. of freedom     1
 Full point group                 C*V     NOp   4
 Largest Abelian subgroup         C2V     NOp   4
 Largest concise Abelian subgroup C1      NOp   1
                         Standard orientation:                         
 ---------------------------------------------------------------------
 Center     Atomic      Atomic             Coordinates (Angstroms)
 Number     Number       Type             X           Y           Z
 ---------------------------------------------------------------------
      1          6           0        0.000000    0.000000   -0.643976
      2          8           0        0.000000    0.000000    0.482982
 ---------------------------------------------------------------------
 Rotational constants (GHZ):           0.0000000          58.0386791          58.0386791
 Standard basis: 6-311G(d,p) (5D, 7F)
 There are    20 symmetry adapted cartesian basis functions of A1  symmetry.
 There are     2 symmetry adapted cartesian basis functions of A2  symmetry.
 There are     8 symmetry adapted cartesian basis functions of B1  symmetry.
 There are     8 symmetry adapted cartesian basis functions of B2  symmetry.
 There are    18 symmetry adapted basis functions of A1  symmetry.
 There are     2 symmetry adapted basis functions of A2  symmetry.
 There are     8 symmetry adapted basis functions of B1  symmetry.
 There are     8 symmetry adapted basis functions of B2  symmetry.
    36 basis functions,    64 primitive gaussians,    38 cartesian basis functions
     7 alpha electrons        7 beta electrons
       nuclear repulsion energy        22.5389947896 Hartrees.
 NAtoms=    2 NActive=    2 NUniq=    2 SFac= 1.00D+00 NAtFMM=   60 NAOKFM=F Big=F
 Integral buffers will be    131072 words long.
 Raffenetti 2 integral format.
 Two-electron integral symmetry is turned on.
 One-electron integrals computed using PRISM.
 NBasis=    36 RedAO= T EigKep=  1.37D-02  NBF=    18     2     8     8
 NBsUse=    36 1.00D-06 EigRej= -1.00D+00 NBFU=    18     2     8     8
 Initial guess from the checkpoint file:  "/home/kimariyb/g16/scratch/Gau-171832.chk"
 B after Tr=     0.000000    0.000000    0.000000
         Rot=    1.000000    0.000000    0.000000    0.000000 Ang=   0.00 deg.
 Initial guess orbital symmetries:
       Occupied  (SG) (SG) (SG) (SG) (PI) (PI) (SG)
       Virtual   (PI) (PI) (SG) (PI) (PI) (SG) (SG) (SG) (PI) (PI)
                 (SG) (DLTA) (DLTA) (PI) (PI) (SG) (PI) (PI) (DLTA)
                 (DLTA) (SG) (PI) (PI) (SG) (PI) (PI) (SG) (SG)
                 (SG)
 Keep R1 ints in memory in symmetry-blocked form, NReq=8852945.
 Requested convergence on RMS density matrix=1.00D-08 within 128 cycles.
 Requested convergence on MAX density matrix=1.00D-06.
 Requested convergence on             energy=1.00D-06.
 No special actions if energy rises.
 SCF Done:  E(RB3LYP) =  -113.346234658     A.U. after    7 cycles
            NFock=  7  Conv=0.35D-08     -V/T= 2.0027
 Calling FoFJK, ICntrl=      2127 FMM=F ISym2X=1 I1Cent= 0 IOpClX= 0 NMat=1 NMatS=1 NMatT=0.
 ***** Axes restored to original set *****
 -------------------------------------------------------------------
 Center     Atomic                   Forces (Hartrees/Bohr)
 Number     Number              X              Y              Z
 -------------------------------------------------------------------
      1        6           0.000001157   -0.000000000   -0.000000000
      2        8          -0.000001157   -0.000000000   -0.000000000
 -------------------------------------------------------------------
 Cartesian Forces:  Max     0.000001157 RMS     0.000000668

 GradGradGradGradGradGradGradGradGradGradGradGradGradGradGradGradGradGrad
 Berny optimization.
 Using GEDIIS/GDIIS optimizer.
 Internal  Forces:  Max     0.000001157 RMS     0.000001157
 Search for a local minimum.
 Step number   3 out of a maximum of   20
 All quantities printed in internal units (Hartrees-Bohrs-Radians)
 Mixed Optimization -- En-DIIS/RFO-DIIS
 Update second derivatives using D2CorX and points    2    3
 DE= -9.75D-06 DEPred=-9.37D-06 R= 1.04D+00
 TightC=F SS=  1.41D+00  RLast= 3.90D-03 DXNew= 5.0454D-01 1.1691D-02
 Trust test= 1.04D+00 RLast= 3.90D-03 DXMaxT set to 3.00D-01
 The second derivative matrix:
                          R1
           R1           1.28823
 ITU=  1  1
 Use linear search instead of GDIIS.
     Eigenvalues ---    1.28823
 RFO step:  Lambda= 0.00000000D+00 EMin= 1.28823186D+00
 Quartic linear search produced a step of -0.00023.
 Iteration  1 RMS(Cart)=  0.00000064 RMS(Int)=  0.00000000
 ClnCor:  largest displacement from symmetrization is 0.00D+00 for atom     0.
 Variable       Old X    -DE/DX   Delta X   Delta X   Delta X     New X
                                 (Linear)    (Quad)   (Total)
    R1        2.12964  -0.00000  -0.00000   0.00000  -0.00000   2.12964
         Item               Value     Threshold  Converged?
 Maximum Force            0.000001     0.000450     YES
 RMS     Force            0.000001     0.000300     YES
 Maximum Displacement     0.000000     0.001800     YES
 RMS     Displacement     0.000001     0.001200     YES
 Predicted change in Energy=-5.191443D-13
 Optimization completed.
    -- Stationary point found.
                           ----------------------------
                           !   Optimized Parameters   !
                           ! (Angstroms and Degrees)  !
 --------------------------                            --------------------------
 ! Name  Definition              Value          Derivative Info.                !
 --------------------------------------------------------------------------------
 ! R1    R(1,2)                  1.127          -DE/DX =    0.0                 !
 --------------------------------------------------------------------------------
 GradGradGradGradGradGradGradGradGradGradGradGradGradGradGradGradGradGrad

                          Input orientation:                          
 ---------------------------------------------------------------------
 Center     Atomic      Atomic             Coordinates (Angstroms)
 Number     Number       Type             X           Y           Z
 ---------------------------------------------------------------------
      1          6           0       -2.076922   -0.465014   -0.021027
      2          8           0       -0.949964   -0.465014   -0.021027
 ---------------------------------------------------------------------
 Stoichiometry    CO
 Framework group  C*V[C*(CO)]
 Deg. of freedom     1
 Full point group                 C*V     NOp   4
 Largest Abelian subgroup         C2V     NOp   4
 Largest concise Abelian subgroup C1      NOp   1
                         Standard orientation:                         
 ---------------------------------------------------------------------
 Center     Atomic      Atomic             Coordinates (Angstroms)
 Number     Number       Type             X           Y           Z
 ---------------------------------------------------------------------
      1          6           0        0.000000    0.000000   -0.643976
      2          8           0        0.000000    0.000000    0.482982
 ---------------------------------------------------------------------
 Rotational constants (GHZ):           0.0000000          58.0386791          58.0386791

 **********************************************************************

            Population analysis using the SCF density.

 **********************************************************************

 Orbital symmetries:
       Occupied  (SG) (SG) (SG) (SG) (PI) (PI) (SG)
       Virtual   (PI) (PI) (SG) (PI) (PI) (SG) (SG) (SG) (PI) (PI)
                 (SG) (DLTA) (DLTA) (PI) (PI) (SG) (PI) (PI) (DLTA)
                 (DLTA) (SG) (PI) (PI) (SG) (PI) (PI) (SG) (SG)
                 (SG)
 The electronic state is 1-SG.
 Alpha  occ. eigenvalues --  -19.22943 -10.28746  -1.17202  -0.57948  -0.48055
 Alpha  occ. eigenvalues --   -0.48055  -0.38074
 Alpha virt. eigenvalues --   -0.02915  -0.02915   0.21625   0.38813   0.38813
 Alpha virt. eigenvalues --    0.42597   0.65610   0.75390   0.79159   0.79159
 Alpha virt. eigenvalues --    1.25676   1.25808   1.25808   1.41043   1.41043
 Alpha virt. eigenvalues --    1.97055   2.52466   2.52466   2.77183   2.77183
 Alpha virt. eigenvalues --    2.91004   3.31572   3.31572   3.55554   4.76641
 Alpha virt. eigenvalues --    4.76641   5.43592  23.72895  49.80954
          Condensed to atoms (all electrons):
               1          2
     1  C    5.372908   0.547223
     2  O    0.547223   7.532647
 Mulliken charges:
               1
     1  C    0.079869
     2  O   -0.079869
 Sum of Mulliken charges =   0.00000
 Mulliken charges with hydrogens summed into heavy atoms:
               1
     1  C    0.079869
     2  O   -0.079869
 Electronic spatial extent (au):  <R**2>=             39.6442
 Charge=             -0.0000 electrons
 Dipole moment (field-independent basis, Debye):
    X=              0.0000    Y=              0.0000    Z=              0.1214  Tot=              0.1214
 Quadrupole moment (field-independent basis, Debye-Ang):
   XX=            -10.0943   YY=            -10.0943   ZZ=            -12.2192
   XY=              0.0000   XZ=              0.0000   YZ=              0.0000
 Traceless Quadrupole moment (field-independent basis, Debye-Ang):
   XX=              0.7083   YY=              0.7083   ZZ=             -1.4166
   XY=              0.0000   XZ=              0.0000   YZ=              0.0000
 Octapole moment (field-independent basis, Debye-Ang**2):
  XXX=              0.0000  YYY=              0.0000  ZZZ=              6.1415  XYY=              0.0000
  XXY=              0.0000  XXZ=              1.2734  XZZ=              0.0000  YZZ=              0.0000
  YYZ=              1.2734  XYZ=              0.0000
 Hexadecapole moment (field-independent basis, Debye-Ang**3):
 XXXX=             -8.6259 YYYY=             -8.6259 ZZZZ=            -35.8153 XXXY=              0.0000
 XXXZ=              0.0000 YYYX=              0.0000 YYYZ=              0.0000 ZZZX=              0.0000
 ZZZY=              0.0000 XXYY=             -2.8753 XXZZ=             -6.8874 YYZZ=             -6.8874
 XXYZ=              0.0000 YYXZ=              0.0000 ZZXY=              0.0000
 N-N= 2.253899478960D+01 E-N=-3.115016891924D+02  KE= 1.130425931602D+02
 Symmetry A1   KE= 1.047884733407D+02
 Symmetry A2   KE= 4.506039335947D-52
 Symmetry B1   KE= 4.127059909752D+00
 Symmetry B2   KE= 4.127059909752D+00
 1\1\GINC-LOCALHOST\FOpt\RB3LYP\6-311G(d,p)\C1O1\KIMARIYB\23-Jul-2023\0
 \\# b3lyp/6-311g** opt freq\\Title Card Required\\0,1\C,-2.076922415,-
 0.46501362,-0.02102659\O,-0.949964165,-0.46501362,-0.02102659\\Version
 =ES64L-G16RevA.03\State=1-SG\HF=-113.3462347\RMSD=3.523e-09\RMSF=6.677
 e-07\Dipole=0.0477746,0.,0.\Quadrupole=-1.0532326,0.5266163,0.5266163,
 0.,0.,0.\PG=C*V [C*(C1O1)]\\@


 In the race for quality, there is no finish line.
                               -- David T. Kearns
 Job cpu time:       0 days  0 hours  0 minutes 15.2 seconds.
 Elapsed time:       0 days  0 hours  0 minutes  1.7 seconds.
 File lengths (MBytes):  RWF=      6 Int=      0 D2E=      0 Chk=      1 Scr=      1
 Normal termination of Gaussian 16 at Sun Jul 23 10:34:28 2023.
 Link1:  Proceeding to internal job step number  2.
 ----------------------------------------------------------------------
 #N Geom=AllCheck Guess=TCheck SCRF=Check GenChk RB3LYP/6-311G(d,p) Fre
 q
 ----------------------------------------------------------------------
 1/10=4,29=7,30=1,38=1,40=1/1,3;
 2/12=2,40=1/2;
 3/5=4,6=6,7=101,11=2,14=-4,25=1,30=1,70=2,71=2,74=-5,116=1,140=1/1,2,3;
 4/5=101/1;
 5/5=2,38=6,98=1/2;
 8/6=4,10=90,11=11/1;
 11/6=1,8=1,9=11,15=111,16=1/1,2,10;
 10/6=1/2;
 6/7=2,8=2,9=2,10=2,28=1/1;
 7/8=1,10=1,25=1/1,2,3,16;
 1/10=4,30=1/3;
 99//99;
 Structure from the checkpoint file:  "/home/kimariyb/g16/scratch/Gau-171832.chk"
 -------------------
 Title Card Required
 -------------------
 Charge =  0 Multiplicity = 1
 Redundant internal coordinates found in file.  (old form).
 C,0,-2.076922415,-0.46501362,-0.02102659
 O,0,-0.949964165,-0.46501362,-0.02102659
 Recover connectivity data from disk.

 GradGradGradGradGradGradGradGradGradGradGradGradGradGradGradGradGradGrad
 Berny optimization.
 Initialization pass.
                           ----------------------------
                           !    Initial Parameters    !
                           ! (Angstroms and Degrees)  !
 --------------------------                            --------------------------
 ! Name  Definition              Value          Derivative Info.                !
 --------------------------------------------------------------------------------
 ! R1    R(1,2)                  1.127          calculate D2E/DX2 analytically  !
 --------------------------------------------------------------------------------
 Trust Radius=3.00D-01 FncErr=1.00D-07 GrdErr=1.00D-07 EigMax=2.50D+02 EigMin=1.00D-04
 Number of steps in this run=      2 maximum allowed number of steps=      2.
 GradGradGradGradGradGradGradGradGradGradGradGradGradGradGradGradGradGrad

                          Input orientation:                          
 ---------------------------------------------------------------------
 Center     Atomic      Atomic             Coordinates (Angstroms)
 Number     Number       Type             X           Y           Z
 ---------------------------------------------------------------------
      1          6           0       -2.076922   -0.465014   -0.021027
      2          8           0       -0.949964   -0.465014   -0.021027
 ---------------------------------------------------------------------
 Stoichiometry    CO
 Framework group  C*V[C*(CO)]
 Deg. of freedom     1
 Full point group                 C*V     NOp   4
 Largest Abelian subgroup         C2V     NOp   4
 Largest concise Abelian subgroup C1      NOp   1
                         Standard orientation:                         
 ---------------------------------------------------------------------
 Center     Atomic      Atomic             Coordinates (Angstroms)
 Number     Number       Type             X           Y           Z
 ---------------------------------------------------------------------
      1          6           0        0.000000    0.000000   -0.643976
      2          8           0        0.000000    0.000000    0.482982
 ---------------------------------------------------------------------
 Rotational constants (GHZ):           0.0000000          58.0386791          58.0386791
 Standard basis: 6-311G(d,p) (5D, 7F)
 There are    20 symmetry adapted cartesian basis functions of A1  symmetry.
 There are     2 symmetry adapted cartesian basis functions of A2  symmetry.
 There are     8 symmetry adapted cartesian basis functions of B1  symmetry.
 There are     8 symmetry adapted cartesian basis functions of B2  symmetry.
 There are    18 symmetry adapted basis functions of A1  symmetry.
 There are     2 symmetry adapted basis functions of A2  symmetry.
 There are     8 symmetry adapted basis functions of B1  symmetry.
 There are     8 symmetry adapted basis functions of B2  symmetry.
    36 basis functions,    64 primitive gaussians,    38 cartesian basis functions
     7 alpha electrons        7 beta electrons
       nuclear repulsion energy        22.5389947896 Hartrees.
 NAtoms=    2 NActive=    2 NUniq=    2 SFac= 1.00D+00 NAtFMM=   60 NAOKFM=F Big=F
 Integral buffers will be    131072 words long.
 Raffenetti 2 integral format.
 Two-electron integral symmetry is turned on.
 One-electron integrals computed using PRISM.
 NBasis=    36 RedAO= T EigKep=  1.37D-02  NBF=    18     2     8     8
 NBsUse=    36 1.00D-06 EigRej= -1.00D+00 NBFU=    18     2     8     8
 Initial guess from the checkpoint file:  "/home/kimariyb/g16/scratch/Gau-171832.chk"
 B after Tr=     0.000000    0.000000    0.000000
         Rot=    1.000000    0.000000    0.000000    0.000000 Ang=   0.00 deg.
 Initial guess orbital symmetries:
       Occupied  (SG) (SG) (SG) (SG) (PI) (PI) (SG)
       Virtual   (PI) (PI) (SG) (PI) (PI) (SG) (SG) (SG) (PI) (PI)
                 (SG) (DLTA) (DLTA) (PI) (PI) (SG) (PI) (PI) (DLTA)
                 (DLTA) (SG) (PI) (PI) (SG) (PI) (PI) (SG) (SG)
                 (SG)
 Keep R1 ints in memory in symmetry-blocked form, NReq=8852945.
 Requested convergence on RMS density matrix=1.00D-08 within 128 cycles.
 Requested convergence on MAX density matrix=1.00D-06.
 Requested convergence on             energy=1.00D-06.
 No special actions if energy rises.
 SCF Done:  E(RB3LYP) =  -113.346234658     A.U. after    1 cycles
            NFock=  1  Conv=0.13D-09     -V/T= 2.0027
 DoSCS=F DFT=T ScalE2(SS,OS)=  1.000000  1.000000
 Range of M.O.s used for correlation:     1    36
 NBasis=    36 NAE=     7 NBE=     7 NFC=     0 NFV=     0
 NROrb=     36 NOA=     7 NOB=     7 NVA=    29 NVB=    29
 Symmetrizing basis deriv contribution to polar:
 IMax=3 JMax=2 DiffMx= 0.00D+00
 G2DrvN: will do     3 centers at a time, making    1 passes.
 Calling FoFCou, ICntrl=  3107 FMM=F I1Cent=   0 AccDes= 0.00D+00.
 End of G2Drv F.D. properties file   721 does not exist.
 End of G2Drv F.D. properties file   722 does not exist.
 End of G2Drv F.D. properties file   788 does not exist.
          IDoAtm=11
          Differentiating once with respect to electric field.
                with respect to dipole field.
          Differentiating once with respect to nuclear coordinates.
 Keep R1 ints in memory in symmetry-blocked form, NReq=8819933.
          There are     9 degrees of freedom in the 1st order CPHF.  IDoFFX=6 NUNeed=     3.
      6 vectors produced by pass  0 Test12= 2.26D-15 1.11D-08 XBig12= 1.11D+01 2.10D+00.
 AX will form     6 AO Fock derivatives at one time.
      6 vectors produced by pass  1 Test12= 2.26D-15 1.11D-08 XBig12= 6.79D+00 1.29D+00.
      6 vectors produced by pass  2 Test12= 2.26D-15 1.11D-08 XBig12= 4.15D-02 5.92D-02.
      6 vectors produced by pass  3 Test12= 2.26D-15 1.11D-08 XBig12= 5.36D-04 1.48D-02.
      6 vectors produced by pass  4 Test12= 2.26D-15 1.11D-08 XBig12= 6.76D-07 2.88D-04.
      6 vectors produced by pass  5 Test12= 2.26D-15 1.11D-08 XBig12= 1.57D-09 1.30D-05.
      2 vectors produced by pass  6 Test12= 2.26D-15 1.11D-08 XBig12= 1.69D-12 4.64D-07.
      1 vectors produced by pass  7 Test12= 2.26D-15 1.11D-08 XBig12= 9.39D-16 1.65D-08.
 InvSVY:  IOpt=1 It=  1 EMax= 4.44D-16
 Solved reduced A of dimension    39 with     6 vectors.
 Isotropic polarizability for W=    0.000000       10.16 Bohr**3.
 End of Minotr F.D. properties file   721 does not exist.
 End of Minotr F.D. properties file   722 does not exist.
 End of Minotr F.D. properties file   788 does not exist.

 **********************************************************************

            Population analysis using the SCF density.

 **********************************************************************

 Orbital symmetries:
       Occupied  (SG) (SG) (SG) (SG) (PI) (PI) (SG)
       Virtual   (PI) (PI) (SG) (PI) (PI) (SG) (SG) (SG) (PI) (PI)
                 (SG) (DLTA) (DLTA) (PI) (PI) (SG) (PI) (PI) (DLTA)
                 (DLTA) (SG) (PI) (PI) (SG) (PI) (PI) (SG) (SG)
                 (SG)
 The electronic state is 1-SG.
 Alpha  occ. eigenvalues --  -19.22943 -10.28746  -1.17202  -0.57948  -0.48055
 Alpha  occ. eigenvalues --   -0.48055  -0.38074
 Alpha virt. eigenvalues --   -0.02915  -0.02915   0.21625   0.38813   0.38813
 Alpha virt. eigenvalues --    0.42597   0.65610   0.75390   0.79159   0.79159
 Alpha virt. eigenvalues --    1.25676   1.25808   1.25808   1.41043   1.41043
 Alpha virt. eigenvalues --    1.97055   2.52466   2.52466   2.77183   2.77183
 Alpha virt. eigenvalues --    2.91004   3.31572   3.31572   3.55554   4.76641
 Alpha virt. eigenvalues --    4.76641   5.43592  23.72895  49.80954
          Condensed to atoms (all electrons):
               1          2
     1  C    5.372908   0.547223
     2  O    0.547223   7.532647
 Mulliken charges:
               1
     1  C    0.079869
     2  O   -0.079869
 Sum of Mulliken charges =  -0.00000
 Mulliken charges with hydrogens summed into heavy atoms:
               1
     1  C    0.079869
     2  O   -0.079869
 APT charges:
               1
     1  C    0.229474
     2  O   -0.229474
 Sum of APT charges =   0.00000
 APT charges with hydrogens summed into heavy atoms:
               1
     1  C    0.229474
     2  O   -0.229474
 Electronic spatial extent (au):  <R**2>=             39.6442
 Charge=              0.0000 electrons
 Dipole moment (field-independent basis, Debye):
    X=              0.0000    Y=              0.0000    Z=              0.1214  Tot=              0.1214
 Quadrupole moment (field-independent basis, Debye-Ang):
   XX=            -10.0943   YY=            -10.0943   ZZ=            -12.2192
   XY=              0.0000   XZ=              0.0000   YZ=              0.0000
 Traceless Quadrupole moment (field-independent basis, Debye-Ang):
   XX=              0.7083   YY=              0.7083   ZZ=             -1.4166
   XY=              0.0000   XZ=              0.0000   YZ=              0.0000
 Octapole moment (field-independent basis, Debye-Ang**2):
  XXX=              0.0000  YYY=              0.0000  ZZZ=              6.1415  XYY=              0.0000
  XXY=              0.0000  XXZ=              1.2734  XZZ=              0.0000  YZZ=              0.0000
  YYZ=              1.2734  XYZ=              0.0000
 Hexadecapole moment (field-independent basis, Debye-Ang**3):
 XXXX=             -8.6259 YYYY=             -8.6259 ZZZZ=            -35.8153 XXXY=              0.0000
 XXXZ=              0.0000 YYYX=              0.0000 YYYZ=              0.0000 ZZZX=              0.0000
 ZZZY=              0.0000 XXYY=             -2.8753 XXZZ=             -6.8874 YYZZ=             -6.8874
 XXYZ=              0.0000 YYXZ=              0.0000 ZZXY=              0.0000
 N-N= 2.253899478960D+01 E-N=-3.115016892698D+02  KE= 1.130425931967D+02
 Symmetry A1   KE= 1.047884733544D+02
 Symmetry A2   KE= 6.038041195650D-52
 Symmetry B1   KE= 4.127059921185D+00
 Symmetry B2   KE= 4.127059921185D+00
  Exact polarizability:   8.649  -0.000   8.649  -0.000   0.000  13.173
 Approx polarizability:  11.586  -0.000  11.586  -0.000  -0.000  23.102
 Calling FoFJK, ICntrl=    100127 FMM=F ISym2X=1 I1Cent= 0 IOpClX= 0 NMat=1 NMatS=1 NMatT=0.
 Full mass-weighted force constant matrix:
 Low frequencies ---    0.0008    0.0017    0.0020    1.3261    1.3261 2220.1847
 Diagonal vibrational polarizability:
        0.0000000       0.0000000       0.4174165
 Harmonic frequencies (cm**-1), IR intensities (KM/Mole), Raman scattering
 activities (A**4/AMU), depolarization ratios for plane and unpolarized
 incident light, reduced masses (AMU), force constants (mDyne/A),
 and normal coordinates:
                      1
                     SG
 Frequencies --   2220.1847
 Red. masses --     13.4388
 Frc consts  --     39.0290
 IR Inten    --     76.4565
  Atom  AN      X      Y      Z
     1   6     0.00   0.00   0.80
     2   8     0.00   0.00  -0.60

 -------------------
 - Thermochemistry -
 -------------------
 Temperature   298.150 Kelvin.  Pressure   1.00000 Atm.
 Atom     1 has atomic number  6 and mass  12.00000
 Atom     2 has atomic number  8 and mass  15.99491
 Molecular mass:    27.99491 amu.
 Principal axes and moments of inertia in atomic units:
                           1         2         3
     Eigenvalues --     0.00000  31.09549  31.09549
           X            0.00000  -0.00000   1.00000
           Y            0.00000   1.00000   0.00000
           Z            1.00000   0.00000   0.00000
 This molecule is a prolate symmetric top.
 Rotational symmetry number  1.
 Rotational temperature (Kelvin)      2.78542
 Rotational constant (GHZ):          58.038679
 Zero-point vibrational energy      13279.7 (Joules/Mol)
                                    3.17391 (Kcal/Mol)
 Vibrational temperatures:   3194.35
          (Kelvin)
 
 Zero-point correction=                           0.005058 (Hartree/Particle)
 Thermal correction to Energy=                    0.007419
 Thermal correction to Enthalpy=                  0.008363
 Thermal correction to Gibbs Free Energy=        -0.014062
 Sum of electronic and zero-point Energies=           -113.341177
 Sum of electronic and thermal Energies=              -113.338816
 Sum of electronic and thermal Enthalpies=            -113.337872
 Sum of electronic and thermal Free Energies=         -113.360297
 
                     E (Thermal)             CV                S
                      KCal/Mol        Cal/Mol-Kelvin    Cal/Mol-Kelvin
 Total                    4.655              4.973             47.197
 Electronic               0.000              0.000              0.000
 Translational            0.889              2.981             35.923
 Rotational               0.592              1.987             11.274
 Vibrational              3.174              0.005              0.001
                       Q            Log10(Q)             Ln(Q)
 Total Bot       0.293854D+07          6.468132         14.893424
 Total V=0       0.623199D+09          8.794627         20.250377
 Vib (Bot)       0.471536D-02         -2.326485         -5.356930
 Vib (V=0)       0.100002D+01          0.000010          0.000022
 Electronic      0.100000D+01          0.000000          0.000000
 Translational   0.582201D+07          6.765073         15.577155
 Rotational      0.107040D+03          2.029545          4.673199
 ***** Axes restored to original set *****
 -------------------------------------------------------------------
 Center     Atomic                   Forces (Hartrees/Bohr)
 Number     Number              X              Y              Z
 -------------------------------------------------------------------
      1        6           0.000001152   -0.000000000   -0.000000000
      2        8          -0.000001152   -0.000000000   -0.000000000
 -------------------------------------------------------------------
 Cartesian Forces:  Max     0.000001152 RMS     0.000000665
 FormGI is forming the generalized inverse of G from B-inverse, IUseBI=4.

 GradGradGradGradGradGradGradGradGradGradGradGradGradGradGradGradGradGrad
 Berny optimization.
 Internal  Forces:  Max     0.000001152 RMS     0.000001152
 Search for a local minimum.
 Step number   1 out of a maximum of    2
 All quantities printed in internal units (Hartrees-Bohrs-Radians)
 Second derivative matrix not updated -- analytic derivatives used.
 The second derivative matrix:
                          R1
           R1           1.27895
 ITU=  0
     Eigenvalues ---    1.27895
 Angle between quadratic step and forces=   0.00 degrees.
 Linear search not attempted -- first point.
 Iteration  1 RMS(Cart)=  0.00000064 RMS(Int)=  0.00000000
 ClnCor:  largest displacement from symmetrization is 0.00D+00 for atom     0.
 Variable       Old X    -DE/DX   Delta X   Delta X   Delta X     New X
                                 (Linear)    (Quad)   (Total)
    R1        2.12964  -0.00000   0.00000  -0.00000  -0.00000   2.12964
         Item               Value     Threshold  Converged?
 Maximum Force            0.000001     0.000450     YES
 RMS     Force            0.000001     0.000300     YES
 Maximum Displacement     0.000000     0.001800     YES
 RMS     Displacement     0.000001     0.001200     YES
 Predicted change in Energy=-5.187114D-13
 Optimization completed.
    -- Stationary point found.
                           ----------------------------
                           !   Optimized Parameters   !
                           ! (Angstroms and Degrees)  !
 --------------------------                            --------------------------
 ! Name  Definition              Value          Derivative Info.                !
 --------------------------------------------------------------------------------
 ! R1    R(1,2)                  1.127          -DE/DX =    0.0                 !
 --------------------------------------------------------------------------------
 GradGradGradGradGradGradGradGradGradGradGradGradGradGradGradGradGradGrad


 ----------------------------------------------------------------------

 Electric dipole moment (input orientation):
 (Debye = 10**-18 statcoulomb cm , SI units = C m)
                  (au)            (Debye)         (10**-30 SI)
   Tot        0.477746D-01      0.121431D+00      0.405050D+00
   x          0.477746D-01      0.121431D+00      0.405050D+00
   y          0.000000D+00      0.000000D+00      0.000000D+00
   z          0.000000D+00      0.000000D+00      0.000000D+00

 Dipole polarizability, Alpha (input orientation).
 (esu units = cm**3 , SI units = C**2 m**2 J**-1)
 Alpha(0;0):
               (au)            (10**-24 esu)      (10**-40 SI)
   iso        0.101573D+02      0.150515D+01      0.167471D+01
   aniso      0.452334D+01      0.670290D+00      0.745798D+00
   xx         0.131728D+02      0.195201D+01      0.217190D+01
   yx         0.000000D+00      0.000000D+00      0.000000D+00
   yy         0.864948D+01      0.128172D+01      0.142611D+01
   zx         0.000000D+00      0.000000D+00      0.000000D+00
   zy         0.000000D+00      0.000000D+00      0.000000D+00
   zz         0.864948D+01      0.128172D+01      0.142611D+01

 ----------------------------------------------------------------------

 Dipole orientation:
     6          0.03973450         -0.87874839         -3.92481455
     8          0.03973450         -0.87874839         -1.79517210

 Electric dipole moment (dipole orientation):
 (Debye = 10**-18 statcoulomb cm , SI units = C m)
                  (au)            (Debye)         (10**-30 SI)
   Tot        0.477746D-01      0.121431D+00      0.405050D+00
   x          0.000000D+00      0.000000D+00      0.000000D+00
   y          0.000000D+00      0.000000D+00      0.000000D+00
   z          0.477746D-01      0.121431D+00      0.405050D+00

 Dipole polarizability, Alpha (dipole orientation).
 (esu units = cm**3 , SI units = C**2 m**2 J**-1)
 Alpha(0;0):
               (au)            (10**-24 esu)      (10**-40 SI)
   iso        0.101573D+02      0.150515D+01      0.167471D+01
   aniso      0.452334D+01      0.670290D+00      0.745798D+00
   xx         0.864948D+01      0.128172D+01      0.142611D+01
   yx         0.000000D+00      0.000000D+00      0.000000D+00
   yy         0.864948D+01      0.128172D+01      0.142611D+01
   zx         0.000000D+00      0.000000D+00      0.000000D+00
   zy         0.000000D+00      0.000000D+00      0.000000D+00
   zz         0.131728D+02      0.195201D+01      0.217190D+01

 ----------------------------------------------------------------------
 1\1\GINC-LOCALHOST\Freq\RB3LYP\6-311G(d,p)\C1O1\KIMARIYB\23-Jul-2023\0
 \\#N Geom=AllCheck Guess=TCheck SCRF=Check GenChk RB3LYP/6-311G(d,p) F
 req\\Title Card Required\\0,1\C,-2.076922415,-0.46501362,-0.02102659\O
 ,-0.949964165,-0.46501362,-0.02102659\\Version=ES64L-G16RevA.03\State=
 1-SG\HF=-113.3462347\RMSD=1.287e-10\RMSF=6.650e-07\ZeroPoint=0.005058\
 Thermal=0.0074186\Dipole=0.0477746,0.,0.\DipoleDeriv=0.7332866,0.,0.,0
 .,-0.0224323,0.,0.,0.,-0.0224323,-0.7332866,0.,0.,0.,0.0224323,0.,0.,0
 .,0.0224323\Polar=13.1728156,0.,8.6494771,0.,0.,8.6494771\Quadrupole=-
 1.0532326,0.5266163,0.5266163,0.,0.,0.\PG=C*V [C*(C1O1)]\NImag=0\\1.27
 895032,0.,0.00000046,0.,0.,0.00000046,-1.27895032,0.,0.,1.27895032,0.,
 -0.00000046,0.,0.,0.00000046,0.,0.,-0.00000046,0.,0.,0.00000046\\-0.00
 000115,0.,0.,0.00000115,0.,0.\\\@


 MOST BUREAUCRACIES FUNCTION LIKE A SEPTIC TANK.
 THE LARGE CHUNKS RISE TO THE TOP.
 Job cpu time:       0 days  0 hours  0 minutes 11.1 seconds.
 Elapsed time:       0 days  0 hours  0 minutes  1.2 seconds.
 File lengths (MBytes):  RWF=      6 Int=      0 D2E=      0 Chk=      1 Scr=      1
 Normal termination of Gaussian 16 at Sun Jul 23 10:34:29 2023.
