 Entering Gaussian System, Link 0=g16
 Initial command:
 /home/kimariyb/g16/l1.exe "/home/kimariyb/g16/scratch/Gau-173044.inp" -scrdir="/home/kimariyb/g16/scratch/"
 Default is to use a total of  10 processors:
                               10 via shared-memory
                                1 via Linda
 Entering Link 1 = /home/kimariyb/g16/l1.exe PID=    173045.
  
 Copyright (c) 1988,1990,1992,1993,1995,1998,2003,2009,2016,
            Gaussian, Inc.  All Rights Reserved.
  
 This is part of the Gaussian(R) 16 program.  It is based on
 the Gaussian(R) 09 system (copyright 2009, Gaussian, Inc.),
 the Gaussian(R) 03 system (copyright 2003, Gaussian, Inc.),
 the Gaussian(R) 98 system (copyright 1998, Gaussian, Inc.),
 the Gaussian(R) 94 system (copyright 1995, Gaussian, Inc.),
 the Gaussian 92(TM) system (copyright 1992, Gaussian, Inc.),
 the Gaussian 90(TM) system (copyright 1990, Gaussian, Inc.),
 the Gaussian 88(TM) system (copyright 1988, Gaussian, Inc.),
 the Gaussian 86(TM) system (copyright 1986, Carnegie Mellon
 University), and the Gaussian 82(TM) system (copyright 1983,
 Carnegie Mellon University). Gaussian is a federally registered
 trademark of Gaussian, Inc.
  
 This software contains proprietary and confidential information,
 including trade secrets, belonging to Gaussian, Inc.
  
 This software is provided under written license and may be
 used, copied, transmitted, or stored only in accord with that
 written license.
  
 The following legend is applicable only to US Government
 contracts under FAR:
  
                    RESTRICTED RIGHTS LEGEND
  
 Use, reproduction and disclosure by the US Government is
 subject to restrictions as set forth in subparagraphs (a)
 and (c) of the Commercial Computer Software - Restricted
 Rights clause in FAR 52.227-19.
  
 Gaussian, Inc.
 340 Quinnipiac St., Bldg. 40, Wallingford CT 06492
  
  
 ---------------------------------------------------------------
 Warning -- This program may not be used in any manner that
 competes with the business of Gaussian, Inc. or will provide
 assistance to any competitor of Gaussian, Inc.  The licensee
 of this program is prohibited from giving any competitor of
 Gaussian, Inc. access to this program.  By using this program,
 the user acknowledges that Gaussian, Inc. is engaged in the
 business of creating and licensing software in the field of
 computational chemistry and represents and warrants to the
 licensee that it is not a competitor of Gaussian, Inc. and that
 it will not use this program in any manner prohibited above.
 ---------------------------------------------------------------
  

 Cite this work as:
 Gaussian 16, Revision A.03,
 M. J. Frisch, G. W. Trucks, H. B. Schlegel, G. E. Scuseria, 
 M. A. Robb, J. R. Cheeseman, G. Scalmani, V. Barone, 
 G. A. Petersson, H. Nakatsuji, X. Li, M. Caricato, A. V. Marenich, 
 J. Bloino, B. G. Janesko, R. Gomperts, B. Mennucci, H. P. Hratchian, 
 J. V. Ortiz, A. F. Izmaylov, J. L. Sonnenberg, D. Williams-Young, 
 F. Ding, F. Lipparini, F. Egidi, J. Goings, B. Peng, A. Petrone, 
 T. Henderson, D. Ranasinghe, V. G. Zakrzewski, J. Gao, N. Rega, 
 G. Zheng, W. Liang, M. Hada, M. Ehara, K. Toyota, R. Fukuda, 
 J. Hasegawa, M. Ishida, T. Nakajima, Y. Honda, O. Kitao, H. Nakai, 
 T. Vreven, K. Throssell, J. A. Montgomery, Jr., J. E. Peralta, 
 F. Ogliaro, M. J. Bearpark, J. J. Heyd, E. N. Brothers, K. N. Kudin, 
 V. N. Staroverov, T. A. Keith, R. Kobayashi, J. Normand, 
 K. Raghavachari, A. P. Rendell, J. C. Burant, S. S. Iyengar, 
 J. Tomasi, M. Cossi, J. M. Millam, M. Klene, C. Adamo, R. Cammi, 
 J. W. Ochterski, R. L. Martin, K. Morokuma, O. Farkas, 
 J. B. Foresman, and D. J. Fox, Gaussian, Inc., Wallingford CT, 2016.
 
 ******************************************
 Gaussian 16:  ES64L-G16RevA.03 25-Dec-2016
                23-Jul-2023 
 ******************************************
 -------------------------
 # b3lyp/6-311g** opt freq
 -------------------------
 1/18=20,19=15,26=3,38=1/1,3;
 2/9=110,12=2,17=6,18=5,40=1/2;
 3/5=4,6=6,7=101,11=2,25=1,30=1,71=1,74=-5/1,2,3;
 4//1;
 5/5=2,38=5/2;
 6/7=2,8=2,9=2,10=2,28=1/1;
 7//1,2,3,16;
 1/18=20,19=15,26=3/3(2);
 2/9=110/2;
 99//99;
 2/9=110/2;
 3/5=4,6=6,7=101,11=2,25=1,30=1,71=1,74=-5/1,2,3;
 4/5=5,16=3,69=1/1;
 5/5=2,38=5/2;
 7//1,2,3,16;
 1/18=20,19=15,26=3/3(-5);
 2/9=110/2;
 6/7=2,8=2,9=2,10=2,19=2,28=1/1;
 99/9=1/99;
 -------------------
 Title Card Required
 -------------------
 Symbolic Z-matrix:
 Charge =  0 Multiplicity = 1
 O                    -0.94525   0.25826   0. 
 H                     0.01475   0.25826   0. 
 H                    -1.2657    1.1632    0. 
 

 GradGradGradGradGradGradGradGradGradGradGradGradGradGradGradGradGradGrad
 Berny optimization.
 Initialization pass.
                           ----------------------------
                           !    Initial Parameters    !
                           ! (Angstroms and Degrees)  !
 --------------------------                            --------------------------
 ! Name  Definition              Value          Derivative Info.                !
 --------------------------------------------------------------------------------
 ! R1    R(1,2)                  0.96           estimate D2E/DX2                !
 ! R2    R(1,3)                  0.96           estimate D2E/DX2                !
 ! A1    A(2,1,3)              109.5            estimate D2E/DX2                !
 --------------------------------------------------------------------------------
 Trust Radius=3.00D-01 FncErr=1.00D-07 GrdErr=1.00D-06 EigMax=2.50D+02 EigMin=1.00D-04
 Number of steps in this run=     20 maximum allowed number of steps=    100.
 GradGradGradGradGradGradGradGradGradGradGradGradGradGradGradGradGradGrad

                          Input orientation:                          
 ---------------------------------------------------------------------
 Center     Atomic      Atomic             Coordinates (Angstroms)
 Number     Number       Type             X           Y           Z
 ---------------------------------------------------------------------
      1          8           0       -0.945248    0.258264    0.000000
      2          1           0        0.014752    0.258264    0.000000
      3          1           0       -1.265702    1.163200    0.000000
 ---------------------------------------------------------------------
                    Distance matrix (angstroms):
                    1          2          3
     1  O    0.000000
     2  H    0.960000   0.000000
     3  H    0.960000   1.567952   0.000000
 Stoichiometry    H2O
 Framework group  C2V[C2(O),SGV(H2)]
 Deg. of freedom     2
 Full point group                 C2V     NOp   4
 Largest Abelian subgroup         C2V     NOp   4
 Largest concise Abelian subgroup C2      NOp   2
                         Standard orientation:                         
 ---------------------------------------------------------------------
 Center     Atomic      Atomic             Coordinates (Angstroms)
 Number     Number       Type             X           Y           Z
 ---------------------------------------------------------------------
      1          8           0        0.000000    0.000000    0.110812
      2          1           0        0.000000    0.783976   -0.443248
      3          1           0       -0.000000   -0.783976   -0.443248
 ---------------------------------------------------------------------
 Rotational constants (GHZ):         919.6759719         407.9403295         282.5913772
 Standard basis: 6-311G(d,p) (5D, 7F)
 There are    15 symmetry adapted cartesian basis functions of A1  symmetry.
 There are     2 symmetry adapted cartesian basis functions of A2  symmetry.
 There are     5 symmetry adapted cartesian basis functions of B1  symmetry.
 There are     9 symmetry adapted cartesian basis functions of B2  symmetry.
 There are    14 symmetry adapted basis functions of A1  symmetry.
 There are     2 symmetry adapted basis functions of A2  symmetry.
 There are     5 symmetry adapted basis functions of B1  symmetry.
 There are     9 symmetry adapted basis functions of B2  symmetry.
    30 basis functions,    48 primitive gaussians,    31 cartesian basis functions
     5 alpha electrons        5 beta electrons
       nuclear repulsion energy         9.1571160246 Hartrees.
 NAtoms=    3 NActive=    3 NUniq=    2 SFac= 2.25D+00 NAtFMM=   60 NAOKFM=F Big=F
 Integral buffers will be    131072 words long.
 Raffenetti 2 integral format.
 Two-electron integral symmetry is turned on.
 One-electron integrals computed using PRISM.
 NBasis=    30 RedAO= T EigKep=  1.89D-02  NBF=    14     2     5     9
 NBsUse=    30 1.00D-06 EigRej= -1.00D+00 NBFU=    14     2     5     9
 ExpMin= 1.03D-01 ExpMax= 8.59D+03 ExpMxC= 1.30D+03 IAcc=3 IRadAn=         5 AccDes= 0.00D+00
 Harris functional with IExCor=  402 and IRadAn=       5 diagonalized for initial guess.
 HarFok:  IExCor=  402 AccDes= 0.00D+00 IRadAn=         5 IDoV= 1 UseB2=F ITyADJ=14
 ICtDFT=  3500011 ScaDFX=  1.000000  1.000000  1.000000  1.000000
 FoFCou: FMM=F IPFlag=           0 FMFlag=      100000 FMFlg1=           0
         NFxFlg=           0 DoJE=T BraDBF=F KetDBF=T FulRan=T
         wScrn=  0.000000 ICntrl=       500 IOpCl=  0 I1Cent=   200000004 NGrid=           0
         NMat0=    1 NMatS0=      1 NMatT0=    0 NMatD0=    1 NMtDS0=    0 NMtDT0=    0
 Petite list used in FoFCou.
 Initial guess orbital symmetries:
       Occupied  (A1) (A1) (B2) (A1) (B1)
       Virtual   (A1) (B2) (B2) (A1) (A1) (B1) (B2) (A1) (A2) (A1)
                 (B1) (B2) (B2) (A1) (A1) (B2) (B1) (A2) (A1) (A1)
                 (B2) (B1) (A1) (B2) (A1)
 The electronic state of the initial guess is 1-A1.
 Keep R1 ints in memory in symmetry-blocked form, NReq=8734735.
 Requested convergence on RMS density matrix=1.00D-08 within 128 cycles.
 Requested convergence on MAX density matrix=1.00D-06.
 Requested convergence on             energy=1.00D-06.
 No special actions if energy rises.
 Integral accuracy reduced to 1.0D-05 until final iterations.
 Initial convergence to 1.0D-05 achieved.  Increase integral accuracy.
 SCF Done:  E(RB3LYP) =  -76.4467006313     A.U. after    9 cycles
            NFock=  9  Conv=0.79D-08     -V/T= 2.0017

 **********************************************************************

            Population analysis using the SCF density.

 **********************************************************************

 Orbital symmetries:
       Occupied  (A1) (A1) (B2) (A1) (B1)
       Virtual   (A1) (B2) (B2) (A1) (A1) (B1) (B2) (A1) (A2) (A1)
                 (B1) (B2) (B2) (A1) (A1) (B2) (B1) (A2) (A1) (A1)
                 (B2) (B1) (A1) (B2) (A1)
 The electronic state is 1-A1.
 Alpha  occ. eigenvalues --  -19.09923  -0.99888  -0.53185  -0.36535  -0.29783
 Alpha virt. eigenvalues --    0.03007   0.10424   0.38983   0.40883   0.75878
 Alpha virt. eigenvalues --    0.76524   0.85967   1.06301   1.25230   1.32320
 Alpha virt. eigenvalues --    1.48847   1.62225   1.95101   2.03211   2.31455
 Alpha virt. eigenvalues --    2.45746   3.08702   3.17673   3.30372   3.63453
 Alpha virt. eigenvalues --    3.79490   4.76710   5.15136   5.65441  49.85014
          Condensed to atoms (all electrons):
               1          2          3
     1  O    7.857911   0.317819   0.317819
     2  H    0.317819   0.471411  -0.036005
     3  H    0.317819  -0.036005   0.471411
 Mulliken charges:
               1
     1  O   -0.493549
     2  H    0.246775
     3  H    0.246775
 Sum of Mulliken charges =   0.00000
 Mulliken charges with hydrogens summed into heavy atoms:
               1
     1  O    0.000000
 Electronic spatial extent (au):  <R**2>=             19.1473
 Charge=              0.0000 electrons
 Dipole moment (field-independent basis, Debye):
    X=             -0.0000    Y=              0.0000    Z=             -1.9891  Tot=              1.9891
 Quadrupole moment (field-independent basis, Debye-Ang):
   XX=             -7.2013   YY=             -4.0849   ZZ=             -6.2041
   XY=              0.0000   XZ=              0.0000   YZ=             -0.0000
 Traceless Quadrupole moment (field-independent basis, Debye-Ang):
   XX=             -1.3712   YY=              1.7452   ZZ=             -0.3740
   XY=              0.0000   XZ=              0.0000   YZ=             -0.0000
 Octapole moment (field-independent basis, Debye-Ang**2):
  XXX=              0.0000  YYY=              0.0000  ZZZ=             -1.0996  XYY=             -0.0000
  XXY=              0.0000  XXZ=             -0.2987  XZZ=              0.0000  YZZ=              0.0000
  YYZ=             -1.2336  XYZ=             -0.0000
 Hexadecapole moment (field-independent basis, Debye-Ang**3):
 XXXX=             -5.3163 YYYY=             -5.9900 ZZZZ=             -6.3057 XXXY=             -0.0000
 XXXZ=             -0.0000 YYYX=             -0.0000 YYYZ=             -0.0000 ZZZX=             -0.0000
 ZZZY=              0.0000 XXYY=             -2.2049 XXZZ=             -1.9797 YYZZ=             -1.7868
 XXYZ=              0.0000 YYXZ=              0.0000 ZZXY=             -0.0000
 N-N= 9.157116024600D+00 E-N=-1.994985640012D+02  KE= 7.631718033445D+01
 Symmetry A1   KE= 6.805356466010D+01
 Symmetry A2   KE= 1.795529084372D-34
 Symmetry B1   KE= 4.661201992958D+00
 Symmetry B2   KE= 3.602413681391D+00
 Calling FoFJK, ICntrl=      2127 FMM=F ISym2X=1 I1Cent= 0 IOpClX= 0 NMat=1 NMatS=1 NMatT=0.
 ***** Axes restored to original set *****
 -------------------------------------------------------------------
 Center     Atomic                   Forces (Hartrees/Bohr)
 Number     Number              X              Y              Z
 -------------------------------------------------------------------
      1        8          -0.007080478   -0.010018645    0.000000000
      2        1          -0.000963918    0.008192547   -0.000000000
      3        1           0.008044397    0.001826099   -0.000000000
 -------------------------------------------------------------------
 Cartesian Forces:  Max     0.010018645 RMS     0.005643092

 GradGradGradGradGradGradGradGradGradGradGradGradGradGradGradGradGradGrad
 Berny optimization.
 FormGI is forming the generalized inverse of G from B-inverse, IUseBI=4.
 Internal  Forces:  Max     0.014862402 RMS     0.008616830
 Search for a local minimum.
 Step number   1 out of a maximum of   20
 All quantities printed in internal units (Hartrees-Bohrs-Radians)
 Mixed Optimization -- RFO/linear search
 Second derivative matrix not updated -- first step.
 The second derivative matrix:
                          R1        R2        A1
           R1           0.55473
           R2           0.00000   0.55473
           A1           0.00000   0.00000   0.16000
 ITU=  0
     Eigenvalues ---    0.16000   0.55473   0.55473
 RFO step:  Lambda=-1.37217206D-03 EMin= 1.60000000D-01
 Linear search not attempted -- first point.
 Iteration  1 RMS(Cart)=  0.05142547 RMS(Int)=  0.00157066
 Iteration  2 RMS(Cart)=  0.00136114 RMS(Int)=  0.00000000
 Iteration  3 RMS(Cart)=  0.00000000 RMS(Int)=  0.00000000
 ClnCor:  largest displacement from symmetrization is 1.84D-13 for atom     3.
 Variable       Old X    -DE/DX   Delta X   Delta X   Delta X     New X
                                 (Linear)    (Quad)   (Total)
    R1        1.81414  -0.00096   0.00000  -0.00173  -0.00173   1.81240
    R2        1.81414  -0.00096   0.00000  -0.00173  -0.00173   1.81240
    A1        1.91114  -0.01486   0.00000  -0.09210  -0.09210   1.81904
         Item               Value     Threshold  Converged?
 Maximum Force            0.014862     0.000450     NO 
 RMS     Force            0.008617     0.000300     NO 
 Maximum Displacement     0.054462     0.001800     NO 
 RMS     Displacement     0.052077     0.001200     NO 
 Predicted change in Energy=-6.919094D-04
 GradGradGradGradGradGradGradGradGradGradGradGradGradGradGradGradGradGrad

                          Input orientation:                          
 ---------------------------------------------------------------------
 Center     Atomic      Atomic             Coordinates (Angstroms)
 Number     Number       Type             X           Y           Z
 ---------------------------------------------------------------------
      1          8           0       -0.958691    0.239243   -0.000000
      2          1           0       -0.000625    0.283393   -0.000000
      3          1           0       -1.236882    1.157093    0.000000
 ---------------------------------------------------------------------
                    Distance matrix (angstroms):
                    1          2          3
     1  O    0.000000
     2  H    0.959083   0.000000
     3  H    0.959083   1.513831   0.000000
 Stoichiometry    H2O
 Framework group  C2V[C2(O),SGV(H2)]
 Deg. of freedom     2
 Full point group                 C2V     NOp   4
 Largest Abelian subgroup         C2V     NOp   4
 Largest concise Abelian subgroup C2      NOp   2
                         Standard orientation:                         
 ---------------------------------------------------------------------
 Center     Atomic      Atomic             Coordinates (Angstroms)
 Number     Number       Type             X           Y           Z
 ---------------------------------------------------------------------
      1          8           0       -0.000000   -0.000000    0.117800
      2          1           0        0.000000    0.756915   -0.471198
      3          1           0       -0.000000   -0.756915   -0.471198
 ---------------------------------------------------------------------
 Rotational constants (GHZ):         813.8037210         437.6302572         284.5896291
 Standard basis: 6-311G(d,p) (5D, 7F)
 There are    15 symmetry adapted cartesian basis functions of A1  symmetry.
 There are     2 symmetry adapted cartesian basis functions of A2  symmetry.
 There are     5 symmetry adapted cartesian basis functions of B1  symmetry.
 There are     9 symmetry adapted cartesian basis functions of B2  symmetry.
 There are    14 symmetry adapted basis functions of A1  symmetry.
 There are     2 symmetry adapted basis functions of A2  symmetry.
 There are     5 symmetry adapted basis functions of B1  symmetry.
 There are     9 symmetry adapted basis functions of B2  symmetry.
    30 basis functions,    48 primitive gaussians,    31 cartesian basis functions
     5 alpha electrons        5 beta electrons
       nuclear repulsion energy         9.1776166811 Hartrees.
 NAtoms=    3 NActive=    3 NUniq=    2 SFac= 2.25D+00 NAtFMM=   60 NAOKFM=F Big=F
 Integral buffers will be    131072 words long.
 Raffenetti 2 integral format.
 Two-electron integral symmetry is turned on.
 One-electron integrals computed using PRISM.
 NBasis=    30 RedAO= T EigKep=  1.80D-02  NBF=    14     2     5     9
 NBsUse=    30 1.00D-06 EigRej= -1.00D+00 NBFU=    14     2     5     9
 Initial guess from the checkpoint file:  "/home/kimariyb/g16/scratch/Gau-173045.chk"
 B after Tr=     0.000000    0.000000    0.000000
         Rot=    1.000000    0.000000    0.000000   -0.000000 Ang=   0.00 deg.
 Initial guess orbital symmetries:
       Occupied  (A1) (A1) (B2) (A1) (B1)
       Virtual   (A1) (B2) (B2) (A1) (A1) (B1) (B2) (A1) (A2) (A1)
                 (B1) (B2) (B2) (A1) (A1) (B2) (B1) (A2) (A1) (A1)
                 (B2) (B1) (A1) (B2) (A1)
 ExpMin= 1.03D-01 ExpMax= 8.59D+03 ExpMxC= 1.30D+03 IAcc=2 IRadAn=         4 AccDes= 0.00D+00
 Harris functional with IExCor=  402 and IRadAn=       4 diagonalized for initial guess.
 HarFok:  IExCor=  402 AccDes= 0.00D+00 IRadAn=         4 IDoV= 1 UseB2=F ITyADJ=14
 ICtDFT=  3500011 ScaDFX=  1.000000  1.000000  1.000000  1.000000
 FoFCou: FMM=F IPFlag=           0 FMFlag=      100000 FMFlg1=           0
         NFxFlg=           0 DoJE=T BraDBF=F KetDBF=T FulRan=T
         wScrn=  0.000000 ICntrl=       500 IOpCl=  0 I1Cent=   200000004 NGrid=           0
         NMat0=    1 NMatS0=      1 NMatT0=    0 NMatD0=    1 NMtDS0=    0 NMtDT0=    0
 Petite list used in FoFCou.
 Keep R1 ints in memory in symmetry-blocked form, NReq=8734735.
 Requested convergence on RMS density matrix=1.00D-08 within 128 cycles.
 Requested convergence on MAX density matrix=1.00D-06.
 Requested convergence on             energy=1.00D-06.
 No special actions if energy rises.
 Integral accuracy reduced to 1.0D-05 until final iterations.
 Initial convergence to 1.0D-05 achieved.  Increase integral accuracy.
 SCF Done:  E(RB3LYP) =  -76.4474310276     A.U. after    8 cycles
            NFock=  8  Conv=0.94D-08     -V/T= 2.0015
 Calling FoFJK, ICntrl=      2127 FMM=F ISym2X=1 I1Cent= 0 IOpClX= 0 NMat=1 NMatS=1 NMatT=0.
 ***** Axes restored to original set *****
 -------------------------------------------------------------------
 Center     Atomic                   Forces (Hartrees/Bohr)
 Number     Number              X              Y              Z
 -------------------------------------------------------------------
      1        8          -0.002317120   -0.003278649    0.000000000
      2        1           0.002672698    0.000569237   -0.000000000
      3        1          -0.000355578    0.002709412   -0.000000000
 -------------------------------------------------------------------
 Cartesian Forces:  Max     0.003278649 RMS     0.001857516

 GradGradGradGradGradGradGradGradGradGradGradGradGradGradGradGradGradGrad
 Berny optimization.
 Using GEDIIS/GDIIS optimizer.
 FormGI is forming the generalized inverse of G from B-inverse, IUseBI=4.
 Internal  Forces:  Max     0.002696069 RMS     0.002250171
 Search for a local minimum.
 Step number   2 out of a maximum of   20
 All quantities printed in internal units (Hartrees-Bohrs-Radians)
 Mixed Optimization -- RFO/linear search
 Update second derivatives using D2CorX and points    1    2
 DE= -7.30D-04 DEPred=-6.92D-04 R= 1.06D+00
 TightC=F SS=  1.41D+00  RLast= 9.21D-02 DXNew= 5.0454D-01 2.7640D-01
 Trust test= 1.06D+00 RLast= 9.21D-02 DXMaxT set to 3.00D-01
 The second derivative matrix:
                          R1        R2        A1
           R1           0.56430
           R2           0.00957   0.56430
           A1           0.02894   0.02894   0.15151
 ITU=  1  0
 Use linear search instead of GDIIS.
     Eigenvalues ---    0.14759   0.55473   0.57780
 RFO step:  Lambda=-2.97494678D-05 EMin= 1.47585028D-01
 Quartic linear search produced a step of  0.04706.
 Iteration  1 RMS(Cart)=  0.00382587 RMS(Int)=  0.00001445
 Iteration  2 RMS(Cart)=  0.00001640 RMS(Int)=  0.00000000
 Iteration  3 RMS(Cart)=  0.00000000 RMS(Int)=  0.00000000
 ClnCor:  largest displacement from symmetrization is 3.20D-15 for atom     1.
 Variable       Old X    -DE/DX   Delta X   Delta X   Delta X     New X
                                 (Linear)    (Quad)   (Total)
    R1        1.81240   0.00270  -0.00008   0.00513   0.00505   1.81746
    R2        1.81240   0.00270  -0.00008   0.00513   0.00505   1.81746
    A1        1.81904  -0.00081  -0.00433  -0.00267  -0.00701   1.81203
         Item               Value     Threshold  Converged?
 Maximum Force            0.002696     0.000450     NO 
 RMS     Force            0.002250     0.000300     NO 
 Maximum Displacement     0.004422     0.001800     NO 
 RMS     Displacement     0.003829     0.001200     NO 
 Predicted change in Energy=-1.658257D-05
 GradGradGradGradGradGradGradGradGradGradGradGradGradGradGradGradGradGrad

                          Input orientation:                          
 ---------------------------------------------------------------------
 Center     Atomic      Atomic             Coordinates (Angstroms)
 Number     Number       Type             X           Y           Z
 ---------------------------------------------------------------------
      1          8           0       -0.960345    0.236903    0.000000
      2          1           0        0.000231    0.284542   -0.000000
      3          1           0       -1.236085    1.158284    0.000000
 ---------------------------------------------------------------------
                    Distance matrix (angstroms):
                    1          2          3
     1  O    0.000000
     2  H    0.961756   0.000000
     3  H    0.961756   1.513903   0.000000
 Stoichiometry    H2O
 Framework group  C2V[C2(O),SGV(H2)]
 Deg. of freedom     2
 Full point group                 C2V     NOp   4
 Largest Abelian subgroup         C2V     NOp   4
 Largest concise Abelian subgroup C2      NOp   2
                         Standard orientation:                         
 ---------------------------------------------------------------------
 Center     Atomic      Atomic             Coordinates (Angstroms)
 Number     Number       Type             X           Y           Z
 ---------------------------------------------------------------------
      1          8           0       -0.000000   -0.000000    0.118659
      2          1           0        0.000000    0.756951   -0.474637
      3          1           0       -0.000000   -0.756951   -0.474637
 ---------------------------------------------------------------------
 Rotational constants (GHZ):         802.0562325         437.5887331         283.1220070
 Standard basis: 6-311G(d,p) (5D, 7F)
 There are    15 symmetry adapted cartesian basis functions of A1  symmetry.
 There are     2 symmetry adapted cartesian basis functions of A2  symmetry.
 There are     5 symmetry adapted cartesian basis functions of B1  symmetry.
 There are     9 symmetry adapted cartesian basis functions of B2  symmetry.
 There are    14 symmetry adapted basis functions of A1  symmetry.
 There are     2 symmetry adapted basis functions of A2  symmetry.
 There are     5 symmetry adapted basis functions of B1  symmetry.
 There are     9 symmetry adapted basis functions of B2  symmetry.
    30 basis functions,    48 primitive gaussians,    31 cartesian basis functions
     5 alpha electrons        5 beta electrons
       nuclear repulsion energy         9.1530587162 Hartrees.
 NAtoms=    3 NActive=    3 NUniq=    2 SFac= 2.25D+00 NAtFMM=   60 NAOKFM=F Big=F
 Integral buffers will be    131072 words long.
 Raffenetti 2 integral format.
 Two-electron integral symmetry is turned on.
 One-electron integrals computed using PRISM.
 NBasis=    30 RedAO= T EigKep=  1.81D-02  NBF=    14     2     5     9
 NBsUse=    30 1.00D-06 EigRej= -1.00D+00 NBFU=    14     2     5     9
 Initial guess from the checkpoint file:  "/home/kimariyb/g16/scratch/Gau-173045.chk"
 B after Tr=    -0.000000   -0.000000   -0.000000
         Rot=    1.000000   -0.000000    0.000000   -0.000000 Ang=   0.00 deg.
 Initial guess orbital symmetries:
       Occupied  (A1) (A1) (B2) (A1) (B1)
       Virtual   (A1) (B2) (B2) (A1) (A1) (B1) (B2) (A1) (A1) (A2)
                 (B1) (B2) (B2) (A1) (A1) (B2) (B1) (A2) (A1) (A1)
                 (B2) (B1) (A1) (B2) (A1)
 Keep R1 ints in memory in symmetry-blocked form, NReq=8734735.
 Requested convergence on RMS density matrix=1.00D-08 within 128 cycles.
 Requested convergence on MAX density matrix=1.00D-06.
 Requested convergence on             energy=1.00D-06.
 No special actions if energy rises.
 SCF Done:  E(RB3LYP) =  -76.4474484856     A.U. after    7 cycles
            NFock=  7  Conv=0.10D-08     -V/T= 2.0017
 Calling FoFJK, ICntrl=      2127 FMM=F ISym2X=1 I1Cent= 0 IOpClX= 0 NMat=1 NMatS=1 NMatT=0.
 ***** Axes restored to original set *****
 -------------------------------------------------------------------
 Center     Atomic                   Forces (Hartrees/Bohr)
 Number     Number              X              Y              Z
 -------------------------------------------------------------------
      1        8          -0.000147262   -0.000208371    0.000000000
      2        1           0.000207060    0.000009887   -0.000000000
      3        1          -0.000059798    0.000198484   -0.000000000
 -------------------------------------------------------------------
 Cartesian Forces:  Max     0.000208371 RMS     0.000129550

 GradGradGradGradGradGradGradGradGradGradGradGradGradGradGradGradGradGrad
 Berny optimization.
 Using GEDIIS/GDIIS optimizer.
 FormGI is forming the generalized inverse of G from B-inverse, IUseBI=4.
 Internal  Forces:  Max     0.000207296 RMS     0.000169257
 Search for a local minimum.
 Step number   3 out of a maximum of   20
 All quantities printed in internal units (Hartrees-Bohrs-Radians)
 Mixed Optimization -- En-DIIS/RFO-DIIS
 Update second derivatives using D2CorX and points    1    2    3
 DE= -1.75D-05 DEPred=-1.66D-05 R= 1.05D+00
 TightC=F SS=  1.41D+00  RLast= 1.00D-02 DXNew= 5.0454D-01 3.0024D-02
 Trust test= 1.05D+00 RLast= 1.00D-02 DXMaxT set to 3.00D-01
 The second derivative matrix:
                          R1        R2        A1
           R1           0.54312
           R2          -0.01161   0.54312
           A1           0.02806   0.02806   0.15581
 ITU=  1  1  0
 Use linear search instead of GDIIS.
     Eigenvalues ---    0.15167   0.53566   0.55473
 RFO step:  Lambda=-2.22956816D-08 EMin= 1.51666330D-01
 Quartic linear search produced a step of  0.06837.
 Iteration  1 RMS(Cart)=  0.00025162 RMS(Int)=  0.00000002
 Iteration  2 RMS(Cart)=  0.00000002 RMS(Int)=  0.00000000
 ClnCor:  largest displacement from symmetrization is 5.55D-16 for atom     1.
 Variable       Old X    -DE/DX   Delta X   Delta X   Delta X     New X
                                 (Linear)    (Quad)   (Total)
    R1        1.81746   0.00021   0.00035   0.00005   0.00040   1.81786
    R2        1.81746   0.00021   0.00035   0.00005   0.00040   1.81786
    A1        1.81203   0.00000  -0.00048   0.00033  -0.00015   1.81188
         Item               Value     Threshold  Converged?
 Maximum Force            0.000207     0.000450     YES
 RMS     Force            0.000169     0.000300     YES
 Maximum Displacement     0.000257     0.001800     YES
 RMS     Displacement     0.000252     0.001200     YES
 Predicted change in Energy=-8.231042D-08
 Optimization completed.
    -- Stationary point found.
                           ----------------------------
                           !   Optimized Parameters   !
                           ! (Angstroms and Degrees)  !
 --------------------------                            --------------------------
 ! Name  Definition              Value          Derivative Info.                !
 --------------------------------------------------------------------------------
 ! R1    R(1,2)                  0.9618         -DE/DX =    0.0002              !
 ! R2    R(1,3)                  0.9618         -DE/DX =    0.0002              !
 ! A1    A(2,1,3)              103.8215         -DE/DX =    0.0                 !
 --------------------------------------------------------------------------------
 GradGradGradGradGradGradGradGradGradGradGradGradGradGradGradGradGradGrad

                          Input orientation:                          
 ---------------------------------------------------------------------
 Center     Atomic      Atomic             Coordinates (Angstroms)
 Number     Number       Type             X           Y           Z
 ---------------------------------------------------------------------
      1          8           0       -0.960345    0.236903    0.000000
      2          1           0        0.000231    0.284542   -0.000000
      3          1           0       -1.236085    1.158284    0.000000
 ---------------------------------------------------------------------
                    Distance matrix (angstroms):
                    1          2          3
     1  O    0.000000
     2  H    0.961756   0.000000
     3  H    0.961756   1.513903   0.000000
 Stoichiometry    H2O
 Framework group  C2V[C2(O),SGV(H2)]
 Deg. of freedom     2
 Full point group                 C2V     NOp   4
 Largest Abelian subgroup         C2V     NOp   4
 Largest concise Abelian subgroup C2      NOp   2
                         Standard orientation:                         
 ---------------------------------------------------------------------
 Center     Atomic      Atomic             Coordinates (Angstroms)
 Number     Number       Type             X           Y           Z
 ---------------------------------------------------------------------
      1          8           0       -0.000000   -0.000000    0.118659
      2          1           0       -0.000000    0.756951   -0.474637
      3          1           0       -0.000000   -0.756951   -0.474637
 ---------------------------------------------------------------------
 Rotational constants (GHZ):         802.0562325         437.5887331         283.1220070

 **********************************************************************

            Population analysis using the SCF density.

 **********************************************************************

 Orbital symmetries:
       Occupied  (A1) (A1) (B2) (A1) (B1)
       Virtual   (A1) (B2) (B2) (A1) (A1) (B1) (B2) (A1) (A1) (A2)
                 (B1) (B2) (B2) (A1) (A1) (B2) (B1) (A2) (A1) (A1)
                 (B2) (B1) (A1) (B2) (A1)
 The electronic state is 1-A1.
 Alpha  occ. eigenvalues --  -19.10264  -1.00273  -0.52168  -0.37649  -0.29944
 Alpha virt. eigenvalues --    0.02867   0.10397   0.37834   0.42405   0.75994
 Alpha virt. eigenvalues --    0.76423   0.86217   1.06653   1.23982   1.26840
 Alpha virt. eigenvalues --    1.45903   1.65891   1.92120   2.05087   2.28836
 Alpha virt. eigenvalues --    2.47950   3.11260   3.15483   3.32003   3.58965
 Alpha virt. eigenvalues --    3.82270   4.76469   5.18723   5.60641  49.84246
          Condensed to atoms (all electrons):
               1          2          3
     1  O    7.852674   0.310421   0.310421
     2  H    0.310421   0.490137  -0.037316
     3  H    0.310421  -0.037316   0.490137
 Mulliken charges:
               1
     1  O   -0.473515
     2  H    0.236758
     3  H    0.236758
 Sum of Mulliken charges =  -0.00000
 Mulliken charges with hydrogens summed into heavy atoms:
               1
     1  O   -0.000000
 Electronic spatial extent (au):  <R**2>=             19.1792
 Charge=             -0.0000 electrons
 Dipole moment (field-independent basis, Debye):
    X=             -0.0000    Y=              0.0000    Z=             -2.0698  Tot=              2.0698
 Quadrupole moment (field-independent basis, Debye-Ang):
   XX=             -7.1996   YY=             -4.3286   ZZ=             -6.0591
   XY=              0.0000   XZ=              0.0000   YZ=             -0.0000
 Traceless Quadrupole moment (field-independent basis, Debye-Ang):
   XX=             -1.3372   YY=              1.5339   ZZ=             -0.1967
   XY=              0.0000   XZ=              0.0000   YZ=             -0.0000
 Octapole moment (field-independent basis, Debye-Ang**2):
  XXX=              0.0000  YYY=              0.0000  ZZZ=             -1.1856  XYY=             -0.0000
  XXY=              0.0000  XXZ=             -0.3130  XZZ=              0.0000  YZZ=              0.0000
  YYZ=             -1.2136  XYZ=             -0.0000
 Hexadecapole moment (field-independent basis, Debye-Ang**3):
 XXXX=             -5.3096 YYYY=             -6.1903 ZZZZ=             -6.4033 XXXY=             -0.0000
 XXXZ=             -0.0000 YYYX=             -0.0000 YYYZ=             -0.0000 ZZZX=             -0.0000
 ZZZY=             -0.0000 XXYY=             -2.1884 XXZZ=             -2.0075 YYZZ=             -1.7663
 XXYZ=             -0.0000 YYXZ=              0.0000 ZZXY=             -0.0000
 N-N= 9.153058716213D+00 E-N=-1.994763722762D+02  KE= 7.632044328353D+01
 Symmetry A1   KE= 6.803080821222D+01
 Symmetry A2   KE= 5.982176036652D-35
 Symmetry B1   KE= 4.668035928950D+00
 Symmetry B2   KE= 3.621599142362D+00
 1\1\GINC-LOCALHOST\FOpt\RB3LYP\6-311G(d,p)\H2O1\KIMARIYB\23-Jul-2023\0
 \\# b3lyp/6-311g** opt freq\\Title Card Required\\0,1\O,-0.9603446264,
 0.2369030297,0.\H,0.0002311527,0.2845422641,0.\H,-1.2360846957,1.15828
 39163,0.\\Version=ES64L-G16RevA.03\State=1-A1\HF=-76.4474485\RMSD=1.02
 3e-09\RMSF=1.295e-04\Dipole=0.4699864,0.6650154,0.\Quadrupole=0.711829
 6,0.282345,-0.9941746,-0.6064136,0.,0.\PG=C02V [C2(O1),SGV(H2)]\\@


 ...THOSE SCIENCES ARE VAIN AND FULL OF ERRORS WHICH 
 ARE NOT BORN FROM EXPERIMENT, THE MOTHER OF CERTAINTY...

                          -- LEONARDO DA VINCI, 1452-1519
 Job cpu time:       0 days  0 hours  0 minutes 17.0 seconds.
 Elapsed time:       0 days  0 hours  0 minutes  1.8 seconds.
 File lengths (MBytes):  RWF=      6 Int=      0 D2E=      0 Chk=      1 Scr=      1
 Normal termination of Gaussian 16 at Sun Jul 23 10:34:34 2023.
 Link1:  Proceeding to internal job step number  2.
 ----------------------------------------------------------------------
 #N Geom=AllCheck Guess=TCheck SCRF=Check GenChk RB3LYP/6-311G(d,p) Fre
 q
 ----------------------------------------------------------------------
 1/10=4,29=7,30=1,38=1,40=1/1,3;
 2/12=2,40=1/2;
 3/5=4,6=6,7=101,11=2,14=-4,25=1,30=1,70=2,71=2,74=-5,116=1,140=1/1,2,3;
 4/5=101/1;
 5/5=2,38=6,98=1/2;
 8/6=4,10=90,11=11/1;
 11/6=1,8=1,9=11,15=111,16=1/1,2,10;
 10/6=1/2;
 6/7=2,8=2,9=2,10=2,28=1/1;
 7/8=1,10=1,25=1/1,2,3,16;
 1/10=4,30=1/3;
 99//99;
 Structure from the checkpoint file:  "/home/kimariyb/g16/scratch/Gau-173045.chk"
 -------------------
 Title Card Required
 -------------------
 Charge =  0 Multiplicity = 1
 Redundant internal coordinates found in file.  (old form).
 O,0,-0.9603446264,0.2369030297,0.
 H,0,0.0002311527,0.2845422641,0.
 H,0,-1.2360846957,1.1582839163,0.
 Recover connectivity data from disk.

 GradGradGradGradGradGradGradGradGradGradGradGradGradGradGradGradGradGrad
 Berny optimization.
 Initialization pass.
                           ----------------------------
                           !    Initial Parameters    !
                           ! (Angstroms and Degrees)  !
 --------------------------                            --------------------------
 ! Name  Definition              Value          Derivative Info.                !
 --------------------------------------------------------------------------------
 ! R1    R(1,2)                  0.9618         calculate D2E/DX2 analytically  !
 ! R2    R(1,3)                  0.9618         calculate D2E/DX2 analytically  !
 ! A1    A(2,1,3)              103.8215         calculate D2E/DX2 analytically  !
 --------------------------------------------------------------------------------
 Trust Radius=3.00D-01 FncErr=1.00D-07 GrdErr=1.00D-07 EigMax=2.50D+02 EigMin=1.00D-04
 Number of steps in this run=      2 maximum allowed number of steps=      2.
 GradGradGradGradGradGradGradGradGradGradGradGradGradGradGradGradGradGrad

                          Input orientation:                          
 ---------------------------------------------------------------------
 Center     Atomic      Atomic             Coordinates (Angstroms)
 Number     Number       Type             X           Y           Z
 ---------------------------------------------------------------------
      1          8           0       -0.960345    0.236903    0.000000
      2          1           0        0.000231    0.284542   -0.000000
      3          1           0       -1.236085    1.158284    0.000000
 ---------------------------------------------------------------------
                    Distance matrix (angstroms):
                    1          2          3
     1  O    0.000000
     2  H    0.961756   0.000000
     3  H    0.961756   1.513903   0.000000
 Stoichiometry    H2O
 Framework group  C2V[C2(O),SGV(H2)]
 Deg. of freedom     2
 Full point group                 C2V     NOp   4
 Largest Abelian subgroup         C2V     NOp   4
 Largest concise Abelian subgroup C2      NOp   2
                         Standard orientation:                         
 ---------------------------------------------------------------------
 Center     Atomic      Atomic             Coordinates (Angstroms)
 Number     Number       Type             X           Y           Z
 ---------------------------------------------------------------------
      1          8           0        0.000000    0.000000    0.118659
      2          1           0       -0.000000    0.756951   -0.474637
      3          1           0       -0.000000   -0.756951   -0.474637
 ---------------------------------------------------------------------
 Rotational constants (GHZ):         802.0562325         437.5887331         283.1220070
 Standard basis: 6-311G(d,p) (5D, 7F)
 There are    15 symmetry adapted cartesian basis functions of A1  symmetry.
 There are     2 symmetry adapted cartesian basis functions of A2  symmetry.
 There are     5 symmetry adapted cartesian basis functions of B1  symmetry.
 There are     9 symmetry adapted cartesian basis functions of B2  symmetry.
 There are    14 symmetry adapted basis functions of A1  symmetry.
 There are     2 symmetry adapted basis functions of A2  symmetry.
 There are     5 symmetry adapted basis functions of B1  symmetry.
 There are     9 symmetry adapted basis functions of B2  symmetry.
    30 basis functions,    48 primitive gaussians,    31 cartesian basis functions
     5 alpha electrons        5 beta electrons
       nuclear repulsion energy         9.1530587162 Hartrees.
 NAtoms=    3 NActive=    3 NUniq=    2 SFac= 2.25D+00 NAtFMM=   60 NAOKFM=F Big=F
 Integral buffers will be    131072 words long.
 Raffenetti 2 integral format.
 Two-electron integral symmetry is turned on.
 One-electron integrals computed using PRISM.
 NBasis=    30 RedAO= T EigKep=  1.81D-02  NBF=    14     2     5     9
 NBsUse=    30 1.00D-06 EigRej= -1.00D+00 NBFU=    14     2     5     9
 Initial guess from the checkpoint file:  "/home/kimariyb/g16/scratch/Gau-173045.chk"
 B after Tr=    -0.000000    0.000000    0.000000
         Rot=    1.000000    0.000000   -0.000000    0.000000 Ang=   0.00 deg.
 Initial guess orbital symmetries:
       Occupied  (A1) (A1) (B2) (A1) (B1)
       Virtual   (A1) (B2) (B2) (A1) (A1) (B1) (B2) (A1) (A1) (A2)
                 (B1) (B2) (B2) (A1) (A1) (B2) (B1) (A2) (A1) (A1)
                 (B2) (B1) (A1) (B2) (A1)
 Keep R1 ints in memory in symmetry-blocked form, NReq=8734735.
 Requested convergence on RMS density matrix=1.00D-08 within 128 cycles.
 Requested convergence on MAX density matrix=1.00D-06.
 Requested convergence on             energy=1.00D-06.
 No special actions if energy rises.
 SCF Done:  E(RB3LYP) =  -76.4474484856     A.U. after    1 cycles
            NFock=  1  Conv=0.15D-09     -V/T= 2.0017
 DoSCS=F DFT=T ScalE2(SS,OS)=  1.000000  1.000000
 Range of M.O.s used for correlation:     1    30
 NBasis=    30 NAE=     5 NBE=     5 NFC=     0 NFV=     0
 NROrb=     30 NOA=     5 NOB=     5 NVA=    25 NVB=    25
 Symmetrizing basis deriv contribution to polar:
 IMax=3 JMax=2 DiffMx= 0.00D+00
 G2DrvN: will do     4 centers at a time, making    1 passes.
 Calling FoFCou, ICntrl=  3107 FMM=F I1Cent=   0 AccDes= 0.00D+00.
 End of G2Drv F.D. properties file   721 does not exist.
 End of G2Drv F.D. properties file   722 does not exist.
 End of G2Drv F.D. properties file   788 does not exist.
          IDoAtm=111
          Differentiating once with respect to electric field.
                with respect to dipole field.
          Differentiating once with respect to nuclear coordinates.
 Keep R1 ints in memory in symmetry-blocked form, NReq=8702515.
          There are     9 degrees of freedom in the 1st order CPHF.  IDoFFX=4 NUNeed=     9.
      9 vectors produced by pass  0 Test12= 1.39D-15 1.11D-08 XBig12= 3.45D+00 1.26D+00.
 AX will form     9 AO Fock derivatives at one time.
      9 vectors produced by pass  1 Test12= 1.39D-15 1.11D-08 XBig12= 4.33D-01 3.26D-01.
      9 vectors produced by pass  2 Test12= 1.39D-15 1.11D-08 XBig12= 4.70D-03 2.84D-02.
      9 vectors produced by pass  3 Test12= 1.39D-15 1.11D-08 XBig12= 8.85D-06 1.06D-03.
      8 vectors produced by pass  4 Test12= 1.39D-15 1.11D-08 XBig12= 2.37D-08 6.25D-05.
      4 vectors produced by pass  5 Test12= 1.39D-15 1.11D-08 XBig12= 2.35D-11 1.96D-06.
      1 vectors produced by pass  6 Test12= 1.39D-15 1.11D-08 XBig12= 5.11D-15 3.19D-08.
 InvSVY:  IOpt=1 It=  1 EMax= 4.44D-16
 Solved reduced A of dimension    49 with     9 vectors.
 Isotropic polarizability for W=    0.000000        5.91 Bohr**3.
 End of Minotr F.D. properties file   721 does not exist.
 End of Minotr F.D. properties file   722 does not exist.
 End of Minotr F.D. properties file   788 does not exist.

 **********************************************************************

            Population analysis using the SCF density.

 **********************************************************************

 Orbital symmetries:
       Occupied  (A1) (A1) (B2) (A1) (B1)
       Virtual   (A1) (B2) (B2) (A1) (A1) (B1) (B2) (A1) (A1) (A2)
                 (B1) (B2) (B2) (A1) (A1) (B2) (B1) (A2) (A1) (A1)
                 (B2) (B1) (A1) (B2) (A1)
 The electronic state is 1-A1.
 Alpha  occ. eigenvalues --  -19.10264  -1.00273  -0.52168  -0.37649  -0.29944
 Alpha virt. eigenvalues --    0.02867   0.10397   0.37834   0.42405   0.75994
 Alpha virt. eigenvalues --    0.76423   0.86217   1.06653   1.23982   1.26840
 Alpha virt. eigenvalues --    1.45903   1.65891   1.92120   2.05087   2.28836
 Alpha virt. eigenvalues --    2.47950   3.11260   3.15483   3.32003   3.58965
 Alpha virt. eigenvalues --    3.82270   4.76469   5.18723   5.60641  49.84246
          Condensed to atoms (all electrons):
               1          2          3
     1  O    7.852674   0.310421   0.310421
     2  H    0.310421   0.490137  -0.037316
     3  H    0.310421  -0.037316   0.490137
 Mulliken charges:
               1
     1  O   -0.473515
     2  H    0.236758
     3  H    0.236758
 Sum of Mulliken charges =  -0.00000
 Mulliken charges with hydrogens summed into heavy atoms:
               1
     1  O   -0.000000
 APT charges:
               1
     1  O   -0.489143
     2  H    0.244572
     3  H    0.244572
 Sum of APT charges =  -0.00000
 APT charges with hydrogens summed into heavy atoms:
               1
     1  O   -0.000000
 Electronic spatial extent (au):  <R**2>=             19.1792
 Charge=             -0.0000 electrons
 Dipole moment (field-independent basis, Debye):
    X=             -0.0000    Y=              0.0000    Z=             -2.0698  Tot=              2.0698
 Quadrupole moment (field-independent basis, Debye-Ang):
   XX=             -7.1996   YY=             -4.3286   ZZ=             -6.0591
   XY=              0.0000   XZ=              0.0000   YZ=             -0.0000
 Traceless Quadrupole moment (field-independent basis, Debye-Ang):
   XX=             -1.3372   YY=              1.5339   ZZ=             -0.1967
   XY=              0.0000   XZ=              0.0000   YZ=             -0.0000
 Octapole moment (field-independent basis, Debye-Ang**2):
  XXX=              0.0000  YYY=              0.0000  ZZZ=             -1.1856  XYY=             -0.0000
  XXY=             -0.0000  XXZ=             -0.3130  XZZ=              0.0000  YZZ=              0.0000
  YYZ=             -1.2136  XYZ=             -0.0000
 Hexadecapole moment (field-independent basis, Debye-Ang**3):
 XXXX=             -5.3096 YYYY=             -6.1903 ZZZZ=             -6.4033 XXXY=             -0.0000
 XXXZ=             -0.0000 YYYX=             -0.0000 YYYZ=             -0.0000 ZZZX=             -0.0000
 ZZZY=             -0.0000 XXYY=             -2.1884 XXZZ=             -2.0075 YYZZ=             -1.7663
 XXYZ=              0.0000 YYXZ=              0.0000 ZZXY=             -0.0000
 N-N= 9.153058716213D+00 E-N=-1.994763721733D+02  KE= 7.632044323360D+01
 Symmetry A1   KE= 6.803080818683D+01
 Symmetry A2   KE= 7.102404627975D-34
 Symmetry B1   KE= 4.668035914173D+00
 Symmetry B2   KE= 3.621599132591D+00
  Exact polarizability:   4.054   0.000   7.745   0.000  -0.000   5.945
 Approx polarizability:   4.314   0.000   9.533   0.000  -0.000   7.292
 Calling FoFJK, ICntrl=    100127 FMM=F ISym2X=1 I1Cent= 0 IOpClX= 0 NMat=1 NMatS=1 NMatT=0.
 Full mass-weighted force constant matrix:
 Low frequencies ---  -56.2745  -54.2590  -53.0676   -0.0017   -0.0014    0.0011
 Low frequencies --- 1637.9010 3812.7675 3909.8378
 Diagonal vibrational polarizability:
        0.0000000       0.0440888       0.5896271
 Harmonic frequencies (cm**-1), IR intensities (KM/Mole), Raman scattering
 activities (A**4/AMU), depolarization ratios for plane and unpolarized
 incident light, reduced masses (AMU), force constants (mDyne/A),
 and normal coordinates:
                      1                      2                      3
                     A1                     A1                     B2
 Frequencies --   1637.9010              3812.7675              3909.8378
 Red. masses --      1.0823                 1.0455                 1.0812
 Frc consts  --      1.7107                 8.9550                 9.7379
 IR Inten    --     58.1158                 3.5917                25.0445
  Atom  AN      X      Y      Z        X      Y      Z        X      Y      Z
     1   8    -0.00   0.00  -0.07     0.00  -0.00   0.05    -0.00  -0.07  -0.00
     2   1     0.00   0.43   0.56     0.00   0.58  -0.40    -0.00   0.56  -0.44
     3   1     0.00  -0.43   0.56    -0.00  -0.58  -0.40     0.00   0.56   0.44

 -------------------
 - Thermochemistry -
 -------------------
 Temperature   298.150 Kelvin.  Pressure   1.00000 Atm.
 Atom     1 has atomic number  8 and mass  15.99491
 Atom     2 has atomic number  1 and mass   1.00783
 Atom     3 has atomic number  1 and mass   1.00783
 Molecular mass:    18.01056 amu.
 Principal axes and moments of inertia in atomic units:
                           1         2         3
     Eigenvalues --     2.25014   4.12429   6.37443
           X            0.00000   0.00000   1.00000
           Y            1.00000   0.00000  -0.00000
           Z            0.00000   1.00000   0.00000
 This molecule is an asymmetric top.
 Rotational symmetry number  2.
 Rotational temperatures (Kelvin)     38.49263    21.00095    13.58771
 Rotational constants (GHZ):         802.05623   437.58873   283.12201
 Zero-point vibrational energy      55988.3 (Joules/Mol)
                                   13.38152 (Kcal/Mol)
 Vibrational temperatures:   2356.57  5485.72  5625.38
          (Kelvin)
 
 Zero-point correction=                           0.021325 (Hartree/Particle)
 Thermal correction to Energy=                    0.024160
 Thermal correction to Enthalpy=                  0.025104
 Thermal correction to Gibbs Free Energy=         0.003679
 Sum of electronic and zero-point Energies=            -76.426124
 Sum of electronic and thermal Energies=               -76.423288
 Sum of electronic and thermal Enthalpies=             -76.422344
 Sum of electronic and thermal Free Energies=          -76.443770
 
                     E (Thermal)             CV                S
                      KCal/Mol        Cal/Mol-Kelvin    Cal/Mol-Kelvin
 Total                   15.161              6.008             45.094
 Electronic               0.000              0.000              0.000
 Translational            0.889              2.981             34.608
 Rotational               0.889              2.981             10.480
 Vibrational             13.383              0.046              0.007
                       Q            Log10(Q)             Ln(Q)
 Total Bot       0.203236D-01         -1.691999         -3.895971
 Total V=0       0.130834D+09          8.116721         18.689441
 Vib (Bot)       0.155396D-09         -9.808559        -22.585042
 Vib (V=0)       0.100037D+01          0.000160          0.000369
 Electronic      0.100000D+01          0.000000          0.000000
 Translational   0.300431D+07          6.477745         14.915559
 Rotational      0.435327D+02          1.638816          3.773513
 ***** Axes restored to original set *****
 -------------------------------------------------------------------
 Center     Atomic                   Forces (Hartrees/Bohr)
 Number     Number              X              Y              Z
 -------------------------------------------------------------------
      1        8          -0.000147262   -0.000208371    0.000000000
      2        1           0.000207059    0.000009888    0.000000000
      3        1          -0.000059797    0.000198483   -0.000000000
 -------------------------------------------------------------------
 Cartesian Forces:  Max     0.000208371 RMS     0.000129549
 FormGI is forming the generalized inverse of G from B-inverse, IUseBI=4.

 GradGradGradGradGradGradGradGradGradGradGradGradGradGradGradGradGradGrad
 Berny optimization.
 Internal  Forces:  Max     0.000207295 RMS     0.000169256
 Search for a local minimum.
 Step number   1 out of a maximum of    2
 All quantities printed in internal units (Hartrees-Bohrs-Radians)
 Second derivative matrix not updated -- analytic derivatives used.
 The second derivative matrix:
                          R1        R2        A1
           R1           0.53580
           R2          -0.00501   0.53580
           A1           0.03107   0.03107   0.16059
 ITU=  0
     Eigenvalues ---    0.15544   0.53594   0.54082
 Angle between quadratic step and forces=  15.03 degrees.
 Linear search not attempted -- first point.
 Iteration  1 RMS(Cart)=  0.00025121 RMS(Int)=  0.00000002
 Iteration  2 RMS(Cart)=  0.00000002 RMS(Int)=  0.00000000
 ClnCor:  largest displacement from symmetrization is 4.97D-16 for atom     1.
 Variable       Old X    -DE/DX   Delta X   Delta X   Delta X     New X
                                 (Linear)    (Quad)   (Total)
    R1        1.81746   0.00021   0.00000   0.00040   0.00040   1.81786
    R2        1.81746   0.00021   0.00000   0.00040   0.00040   1.81786
    A1        1.81203   0.00000   0.00000  -0.00015  -0.00015   1.81188
         Item               Value     Threshold  Converged?
 Maximum Force            0.000207     0.000450     YES
 RMS     Force            0.000169     0.000300     YES
 Maximum Displacement     0.000256     0.001800     YES
 RMS     Displacement     0.000251     0.001200     YES
 Predicted change in Energy=-8.272797D-08
 Optimization completed.
    -- Stationary point found.
                           ----------------------------
                           !   Optimized Parameters   !
                           ! (Angstroms and Degrees)  !
 --------------------------                            --------------------------
 ! Name  Definition              Value          Derivative Info.                !
 --------------------------------------------------------------------------------
 ! R1    R(1,2)                  0.9618         -DE/DX =    0.0002              !
 ! R2    R(1,3)                  0.9618         -DE/DX =    0.0002              !
 ! A1    A(2,1,3)              103.8215         -DE/DX =    0.0                 !
 --------------------------------------------------------------------------------
 GradGradGradGradGradGradGradGradGradGradGradGradGradGradGradGradGradGrad


 ----------------------------------------------------------------------

 Electric dipole moment (input orientation):
 (Debye = 10**-18 statcoulomb cm , SI units = C m)
                  (au)            (Debye)         (10**-30 SI)
   Tot        0.814330D+00      0.206982D+01      0.690417D+01
   x          0.469986D+00      0.119459D+01      0.398471D+01
   y          0.665015D+00      0.169030D+01      0.563824D+01
   z          0.000000D+00      0.000000D+00      0.000000D+00

 Dipole polarizability, Alpha (input orientation).
 (esu units = cm**3 , SI units = C**2 m**2 J**-1)
 Alpha(0;0):
               (au)            (10**-24 esu)      (10**-40 SI)
   iso        0.591494D+01      0.876504D+00      0.975243D+00
   aniso      0.319696D+01      0.473741D+00      0.527108D+00
   xx         0.714576D+01      0.105889D+01      0.117818D+01
   yx        -0.848575D+00     -0.125746D+00     -0.139911D+00
   yy         0.654477D+01      0.969834D+00      0.107909D+01
   zx         0.000000D+00      0.000000D+00      0.000000D+00
   zy         0.000000D+00      0.000000D+00      0.000000D+00
   zz         0.405431D+01      0.600786D+00      0.668465D+00

 ----------------------------------------------------------------------

 Dipole orientation:
     8         -1.42129030          1.00446867         -0.68180075
     1         -0.25314113          0.17890246          0.43936595
     1         -2.58943948          1.83003489          0.43936595

 Electric dipole moment (dipole orientation):
 (Debye = 10**-18 statcoulomb cm , SI units = C m)
                  (au)            (Debye)         (10**-30 SI)
   Tot        0.814330D+00      0.206982D+01      0.690417D+01
   x          0.000000D+00      0.000000D+00      0.000000D+00
   y          0.000000D+00      0.000000D+00      0.000000D+00
   z          0.814330D+00      0.206982D+01      0.690417D+01

 Dipole polarizability, Alpha (dipole orientation).
 (esu units = cm**3 , SI units = C**2 m**2 J**-1)
 Alpha(0;0):
               (au)            (10**-24 esu)      (10**-40 SI)
   iso        0.591494D+01      0.876504D+00      0.975243D+00
   aniso      0.319696D+01      0.473741D+00      0.527108D+00
   xx         0.651596D+01      0.965565D+00      0.107434D+01
   yx        -0.173972D+01     -0.257800D+00     -0.286841D+00
   yy         0.528382D+01      0.782982D+00      0.871185D+00
   zx         0.000000D+00      0.000000D+00      0.000000D+00
   zy         0.000000D+00      0.000000D+00      0.000000D+00
   zz         0.594505D+01      0.880966D+00      0.980207D+00

 ----------------------------------------------------------------------
 1\1\GINC-LOCALHOST\Freq\RB3LYP\6-311G(d,p)\H2O1\KIMARIYB\23-Jul-2023\0
 \\#N Geom=AllCheck Guess=TCheck SCRF=Check GenChk RB3LYP/6-311G(d,p) F
 req\\Title Card Required\\0,1\O,-0.9603446264,0.2369030297,0.\H,0.0002
 311527,0.2845422641,0.\H,-1.2360846957,1.1582839163,0.\\Version=ES64L-
 G16RevA.03\State=1-A1\HF=-76.4474485\RMSD=1.511e-10\RMSF=1.295e-04\Zer
 oPoint=0.0213248\Thermal=0.0241601\Dipole=0.4699864,0.6650154,0.\Dipol
 eDeriv=-0.3900231,0.0549818,0.,0.0549818,-0.351083,0.,0.,0.,-0.726323,
 0.1086161,-0.0331708,0.,-0.0829994,0.261937,0.,0.,0.,0.3631615,0.28140
 71,-0.0218109,0.,0.0280177,0.089146,0.,0.,0.,0.3631615\Polar=7.1457585
 ,-0.8485747,6.5447664,0.,0.,4.0543075\Quadrupole=0.7118296,0.282345,-0
 .9941746,-0.6064136,0.,0.\PG=C02V [C2(O1),SGV(H2)]\NImag=0\\0.59930845
 ,-0.09993774,0.52852883,0.,0.,-0.00021453,-0.51882753,0.00247669,0.,0.
 53630002,-0.05776563,-0.04509111,0.,0.00709496,0.04800967,0.,0.,0.0001
 0726,0.,0.,-0.00010734,-0.08048092,0.09746105,0.,-0.01747249,0.0506706
 7,0.,0.09795341,0.15770336,-0.48343772,0.,-0.00957164,-0.00291856,0.,-
 0.14813172,0.48635628,0.,0.,0.00010726,0.,0.,0.00000007,0.,0.,-0.00010
 734\\0.00014726,0.00020837,0.,-0.00020706,-0.00000989,0.,0.00005980,-0
 .00019848,0.\\\@


 The theorems and results in mathematical physics are
 not theorems and results about Nature, but about our
 description of it.
                   --Gerard 't Hooft
 Job cpu time:       0 days  0 hours  0 minutes 11.5 seconds.
 Elapsed time:       0 days  0 hours  0 minutes  1.2 seconds.
 File lengths (MBytes):  RWF=      6 Int=      0 D2E=      0 Chk=      1 Scr=      1
 Normal termination of Gaussian 16 at Sun Jul 23 10:34:35 2023.
